TITLE = "Written by meshio v4.3.8"
VARIABLES = "X", "Y"
ZONE NODES = 27272, ELEMENTS = 53860,
DATAPACKING = BLOCK, ZONETYPE = FETRIANGLE
0.0 2.0 6.123233995736766e-17 1.0 1.0083817405436275 1.0178809538162865 1.0274144576956041 1.0370649675614276 1.0468070379502448 1.0566226775666325 1.0664983120297535 1.0764228959352402 1.086387641648513 1.0963851609078397 1.1064092338687548 1.1164546733464422 1.1265172104984016 1.136593376179949 1.1466803790544633 1.156775988300309
1.1668784275143154 1.1769862832787015 1.187098429155985 1.19721396415742 1.2073321638755152 1.21745244220153 1.2275743216156343 1.237697410266432 1.2478213843414485 1.2579459745129722 1.2680709554968561 1.278196137975719 1.2883213623118837 1.2984464936132705 1.3085714178227528 1.318696038583822 1.3288202746979592 1.3389440580361802 1.349067331802471 1.3591900490730189
1.3693121715545815 1.379433668519671 1.3895545158867995 1.3996746954218084 1.4097941940420264 1.4199130032091916 1.4300311184001786 1.4401485386468302 1.4502652661378754 1.4603813058771227 1.4704966653930132 1.4806113544952326 1.4907253850745077 1.5008387709419575 1.5109515277044816 1.5210636726726403 1.5311752247973143 1.5412862046311513 1.551396634310352 1.5615065375517456
1.5716159396592881 1.5817248675330753 1.591833349672621 1.6019414161644518 1.6120490986419325 1.6221564302025224 1.6322634452642701 1.6423701793390446 1.652476668694595 1.662582949870672 1.67268905900581 1.6827950309204156 1.6929008978879474 1.7030066880084298 1.71311242307628 1.7232181158062012 1.7333237662450605 1.743429357152078 1.7535348480714756 1.7636401677470497
1.7737452044313133 1.7838497935143964 1.7939537017263263 1.8040566069283586 1.8141580721668362 1.8242575121513775 1.834354149525531 1.8444469570312387 1.8545345796136246 1.8646152271782779 1.8746865233854901 1.8847452876898345 1.8947872163246553 1.9048064138213385 1.9147947137149701 1.9247407357041288 1.9346286971539366 1.944437201498516 1.9541392139320808 1.9637031733967139
1.9731079778291707 1.982370594967108 1.9917288410578806 0.9999585907825977 1.011570527727101 1.0218477434650866 1.0317841199012021 1.0416479894773683 1.0515194982769815 1.0614226931897766 1.071362023173683 1.0813351226607801 1.0913374932748527 1.1013643101066657 1.111411130960841 1.1214741334317482 1.1315501442168505 1.1416365812598637 1.151731366233128 1.1618328343256246
1.171939652878354 1.182050752694724 1.1921652721978009 1.2022825130626216 1.212401905465197 1.222522981097879 1.2326453523126415 1.2427686960262887 1.2528927412885178 1.2630172596485008 1.2731420576507877 1.2832669709481224 1.2933918596419849 1.3035166045570308 1.313641104228545 1.323765272437364 1.333889036168418 1.3440123339002756 1.3541351141563733 1.3642573342659654
1.3743789592956757 1.3844999611220805 1.3946203176227716 1.4047400119686044 1.4148590320036958 1.4249773697025798 1.4350950206961026 1.4452119838591992 1.4553282609548563 1.4654438563294743 1.4755587766554283 1.4856730307170822 1.495786629236816 1.5058995847377452 1.516011911439873 1.5261236251863257 1.5362347433961183 1.5463452850395842 1.5564552706321197 1.566564722241299
1.5766736635015466 1.5867821196295657 1.5968901174323267 1.6069976852977768 1.6171048531563064 1.6272116523983287 1.6373181157299963 1.6474242769448715 1.657530170584051 1.667635831450596 1.677741293935715 1.6878465911035454 1.6979517534681088 1.7080568073792912 1.718161772913834 1.728266661141296 1.7383714706028692 1.748476182801593 1.758580756455065 1.7686851202054068
1.7787891634158142 1.7888927246092268 1.7989955770239958 1.8090974106761322 1.8191978102279411 1.8292962278603253 1.8393919501972 1.8494840580395686 1.8595713769973863 1.8696524155200003 1.8797252831556461 1.8897875736973264 1.8998361803621937 1.9098669746209394 1.9198742163057219 1.9298494795130432 1.9397799128292885 1.9496464557081206 1.9594259757754817 1.9691107450782093
1.978775192714944 1.9887489920736965 1.999977706871231 0.999812139844906 1.0074622341146537 1.016741360432234 1.0265198413451477 1.0363954937887097 1.0463099351973293 1.0562548342071216 1.066227636398788 1.076226045609415 1.0862470535648854 1.096287360558663 1.1063437823360087 1.1164134795119198 1.1264940348943813 1.13658344361145 1.1466800647232036 1.1567825620885799
1.1668898477488363 1.1770010329302485 1.1871153877528628 1.197232309005019 1.207351294755415 1.2174719245027625 1.2275938436967417 1.2377167516584042 1.2478403921212715 1.257964545783261 1.2680890243985194 1.2782136660488772 1.288338331320961 1.2984629001814925 1.3085872693940255 1.3187113503588728 1.3288350672869758 1.3389583556403262 1.3490811607878648 1.3592034368380563
1.3693251456184663 1.3794462557795129 1.3895667420046667 1.3996865843132136 1.4098057674445637 1.4199242803152676 1.430042115541516 1.440159269021169 1.450275739570291 1.4603915286098523 1.4705066398988595 1.4806210793104784 1.4907348546480548 1.5008479754980555 1.5109604531170262 1.5210723003496625 1.5311835315749367 1.5412941626770165 1.551404211037388 1.5615136955441322
1.571622636613712 1.5817310562198441 1.591838977923056 1.6019464268933032 1.6120534299164637 1.6221600153736004 1.6322662131794767 1.6423720546637988 1.652477572374908 1.6625827997809595 1.6726877708377816 1.6827925193853688 1.6928970783259316 1.7030014785253762 1.713105747366538 1.7232099068662603 1.73331397124924 1.7434179438498103 1.7535218131893888 1.7636255480545013
1.773729091382781 1.7838323527605768 1.7939351993603192 1.8040374452226615 1.814138838954897 1.8242390502283001 1.8343376559872415 1.84443412811916 1.8545278255457638 1.864617995245014 1.874703788236465 1.8847842968241129 1.8948586149201778 1.9049259049046834 1.9149853982053704 1.9250360985069581 1.9350755341939014 1.9450958734134938 1.9550737587933409 1.9649506996870487
1.9746187692275419 1.9839600851852 1.992802412098766 0.9995996825934005 1.0100398128576509 1.0206019722873312 1.0308469549119013 1.0409378052566027 1.050980978971411 1.0610167743659804 1.071059402208255 1.0811127881308196 1.0911770823653653 1.101251220986587 1.1113338780204725 1.1214237921769123 1.131519856613301 1.1416211252682342 1.151726794134607 1.1618361782742146
1.171948691098167 1.182063827323087 1.1921811493704695 1.2023002765788047 1.2124208766054292 1.2225426585070562 1.232665367105998 1.242788778346793 1.2529126954227015 1.2630369455069348 1.2731613769643664 1.2832858569495436 1.2934102693191036 1.3035345128033033 1.3136584993937757 1.3237821529140146 1.3339054077461558 1.344028207693037 1.3541505049586244 1.3642722592331098
1.3743934368713877 1.3845140101555942 1.3946339566338641 1.4047532585286706 1.4148719022090697 1.4249898777219296 1.4351071783778617 1.445223800388049 1.4553397425486096 1.4654550059694185 1.4755695938445985 1.4856835112620606 1.4957967650495845 1.5059093636550256 1.5160213170582022 1.5261326367119796 1.5362433355099032 1.5463534277775361 1.5564629292843435 1.5665718572725835
1.5766802304991114 1.5867880692853655 1.5968953955699716 1.607002232957402 1.6171086067548244 1.627214543987759 1.6373200733832216 1.6474252253067125 1.6575300316365085 1.667634525555221 1.677738741234294 1.6878427133819813 1.6979464766191878 1.7080500646404453 1.7181535091091527 1.7282568382276176 1.7383600749140624 1.7484632345124254 1.7585663219597931 1.7686693283463295
1.7787722268337796 1.7888749679677491 1.79897747455371 1.809079636511705 1.819181306550087 1.8292822982128438 1.839382389020339 1.8494813332768332 1.8595788919956593 1.8696748917629364 1.8797693308860872 1.8898625608644757 1.8999555858151802 1.9100505449813632 1.9201514761858478 1.9302654865564637 1.940404357483319 1.9505856732496074 1.9608280027493428 1.971116930203383
1.9812978196008453 1.9910275796127062 1.9998970103386597 0.9992690078391572 1.0071344818826244 1.0159684372454287 1.0256632635497558 1.0356352499225119 1.0456878195240524 1.055764694489128 1.0658511520896514 1.0759426989002423 1.0860377860085457 1.0961358336797125 1.1062366222458135 1.1163400571887756 1.126446066739784 1.1365545584649037 1.1466654055638377 1.1567784478734104
1.166893499194989 1.1770103563999197 1.1871288080631268 1.1972486416888826 1.2073696492911818 1.2174916314263795 1.227614399909978 1.2377377794804298 1.2478616086555676 1.2579857399913486 1.2681100399127485 1.2782343882496265 1.288358677578821 1.2984828124480068 1.3086067085366386 1.3187302917937065 1.328853497580257 1.338976269835846 1.3490985602816252 1.3592203276680968
1.3693415370722062 1.3794621592460807 1.3895821700180828 1.3997015497457654 1.4098202828195676 1.4199383572156663 1.4300557640961298 1.4401724974543981 1.4502885538040624 1.4604039319089306 1.4705186325524027 1.4806326583442282 1.4907460135627397 1.500858704030676 1.510970737022734 1.5210821212029106 1.531192866589637 1.5413029845465773 1.551412487796786 1.561521390457686
1.5716297080939845 1.5817374577853287 1.59184465820495 1.6019513297050338 1.6120574944038186 1.622163176268635 1.6322684011880844 1.642373197025432 1.6524775936438865 1.6625816228929409 1.6726853185430473 1.6827887161539898 1.6928918528600645 1.7029947670530639 1.7130974979421418 1.723200084968536 1.7333025670538802 1.743404981664919 1.7535073636879295 1.7636097441275171
1.7737121486846246 1.783814596340195 1.7939170981945225 1.8040196570213818 1.8141222683440796 1.8242249244147142 1.8343276234178427 1.844430387752009 1.8545332977346622 1.8646365511328904 1.8747405655697724 1.8848461519389499 1.8949548061263584 1.905069201588607 1.9151940353211343 1.9253375290409938 1.9355142230061668 1.9457504687982778 1.9560957512264519 1.9666456080951389
1.9775675022173878 1.9888770303788639 1.9997724223608324 0.9988950309469649 1.00939523493349 1.0198330004289222 1.030090622194136 1.0402864706294852 1.0504521579319361 1.0606024845253403 1.0707427433994707 1.0808754495811816 1.0910024194056547 1.1011252410318473 1.1112453006030458 1.1213637412862372 1.1314814494462528 1.1415990719273592 1.151717050604453 1.1618356622052495
1.1719550563331078 1.1820752884523218 1.1921963468941867 1.2023181741183948 1.2124406829671652 1.2225637687903463 1.2326873182850857 1.2428112157864843 1.2529353476186205 1.2630596049934928 1.273183885839008 1.2833080958488043 1.2934321489758531 1.3035559675361195 1.3136794820456097 1.323802630881423 1.3339253598326901 1.3440476215888597 1.3541693751990909 1.364290585526455
1.3744112227132823 1.384531261668676 1.3946506815853743 1.4047694654904308 1.4148875998322439 1.4250050741051714 1.4351218805120287 1.4452380136641643 1.4553534703184279 1.4654682491500852 1.4755823505605727 1.4856957765189176 1.495808530435561 1.5059206170673072 1.5160320424520655 1.5261428138720106 1.536252939843722 1.5463624301337764 1.5564712957981461 1.566579549243629
1.576687204309375 1.5867942763663505 1.5969007824324017 1.6070067413003242 1.6171121736760863 1.6272171023241564 1.6373215522166094 1.647425550682565 1.6575291275544213 1.6676323153074402 1.6777351491896015 1.6878376673394355 1.6979399108909266 1.7080419240670361 1.7181437542673075 1.728245452161268 1.7383470718091723 1.7484486708467972 1.758550310794403 1.7686520575859423
1.778753982469731 1.7888561635166353 1.7989586881031583 1.8090616569418279 1.8191651905563753 1.8292694396237543 1.8393746014696004 1.8494809464581459 1.859588860507622 1.8696989142767997 1.8798119770913828 1.8899294068326182 1.9000533700842646 1.9101873875559465 1.9203372716970533 1.9305127440918506 1.9407301801731158 1.9510169244672932 1.9614154727338347 1.9719681863158822
1.9825049066181124 1.9916328266738625 1.9996150192675937 0.9983839053084834 1.00641381383345 1.0152605023039916 1.0249418382739377 1.034995559548982 1.045160475086506 1.0553490051606984 1.0655320492381515 1.0757021847709085 1.0858593549782591 1.0960057206079978 1.1061438204850487 1.1162759434628178 1.126403953564546 1.1365292855224356 1.1466529996405341 1.1567758512910244
1.1668983573988185 1.1770208537144098 1.1871435415618026 1.1972665247533754 1.2073898380728514 1.2175134688579392 1.2276373730995778 1.2377614872721892 1.247885736891791 1.2580100425977658 1.2681343243814533 1.27825850444238 1.2883825090389025 1.2985062696102991 1.3086297233778583 1.318752813579206 1.3288754894497405 1.3389977060345597 1.3491194238915356 1.359240608729322
1.369361231011532 1.3794812655492426 1.3896006910972527 1.399719489964701 1.4098376476471723 1.4199551524849123 1.4300719953500431 1.440188169364418 1.4503036696489273 1.4604184931044684 1.470532638224437 1.480646104938338 1.4907588944859256 1.5008710093212458 1.5109824530458258 1.521093230370246 1.53120334710331 1.5413128101679692 1.551421627643169 1.5615298088307639
1.5716373643466166 1.5817443062350551 1.5918506481058807 1.601956405293231 1.6120615950357837 1.6221662366780902 1.6322703518932944 1.6423739649281721 1.6524771028724548 1.6625797959558142 1.672682077877908 1.6827839861796736 1.6928855626678665 1.7029868539100397 1.713087911824184 1.7231887943966224 1.7332895665743147 1.7433903013942402 1.7534910814342273 1.7635920006977224
1.7736931670812282 1.7837947056193388 1.7938967627611833 1.8039995120080579 1.8141031613440273 1.8242079630393457 1.8343142266469101 1.8444223364484233 1.8545327754644236 1.8646461598886277 1.874763291379719 1.8848852418747193 1.8950135000325647 1.9051502371241158 1.9152988080493343 1.9254647229735071 1.935657575083248 1.9458949361230542 1.9562104090443369 1.9666710128700198
1.9774293664308764 1.9888165599410041 1.9993865757745943 0.9978470077100131 1.0085168617236084 1.0190615777144363 1.0294829821554028 1.0398040017727541 1.050077961987403 1.0603173164057995 1.0705281956531103 1.0807159374292132 1.0908855218728666 1.101041311569898 1.1111869099770388 1.1213251704629768 1.1314582833480389 1.1415878884477177 1.1517151858855683 1.1618410337406824
1.1719660292447804 1.1820905739897922 1.1922149250922305 1.2023392346611967 1.2124635798320411 1.222587985351965 1.2327124403770078 1.2428369108248867 1.2529613483505309 1.2630856967779744 1.2732098966323815 1.2833338882645262 1.2934576139411558 1.3035810191824568 1.3137040535570363 1.32382667109089 1.3339488304060445 1.3440704946739386 1.354191631445671 1.3643122124042675
1.374432213071494 1.384551612492501 1.3946703929148103 1.404788539473212 1.4149060398885704 1.4250228841859882 1.4351390644359345 1.4452545745206744 1.4553694099274164 1.4654835675690034 1.4755970456325547 1.4857098434561682 1.4958219614336674 1.5059334009472307 1.5160441643277223 1.5261542548425096 1.5362636767105609 1.5463724351446757 1.5564805364207472 1.5665879879740652
1.5766947985228268 1.5868009782192727 1.5969065388291446 1.607011493940691 1.6171158592050527 1.6272196526108134 1.637322894796714 1.6474256094082635 1.657527823506242 1.6676295680381206 1.677730878387468 1.6878317950216435 1.697932364264867 1.708032639232487 1.7181326809732362 1.728232559879929 1.7383323574455793 1.7484321684613875 1.7585321037747534 1.7686322937479397
1.7787328925779409 1.7888340836493826 1.7989360860849637 1.8090391626162965 1.8191436287997516 1.8292498634186418 1.8393583196153374 1.8494695358675695 1.8595841453848256 1.8697028819532595 1.8798265798980385 1.8899561658345678 1.900092639793995 1.9102370401894113 1.9203903711567418 1.9305534140215588 1.9407261555615332 1.9509059428441329 1.961082046048333 1.9712229252265172
1.981289470517944 1.9910221157644579 1.9991375924569512 0.9971485787043335 1.0053998161699547 1.0143721143636555 1.024387207783273 1.0346081339337712 1.0448790725967305 1.055140730586639 1.065377051771368 1.0755871890489894 1.08577500000709 1.0959451942351548 1.1061020442627651 1.1162490515535715 1.1263889495558677 1.1365238111543206 1.1466551753053897 1.1567841633782805
1.1669115768492986 1.1770379758534 1.1871637407898088 1.1972891198519444 1.207414265254926 1.2175392605736686 1.2276641411877829 1.237788909437633 1.2479135457570791 1.258038016768155 1.2681622810969673 1.2782862934913795 1.2884100076813028 1.2985333783144002 1.3086563622171041 1.3187789191676955 1.3289010123203198 1.339022608382754 1.3491436776237087 1.3592641937652123
1.369384133800644 1.379503477767818 1.3896222084983447 1.3997403113584863 1.4098577739923037 1.4199745860747262 1.4300907390798776 1.4402062260683228 1.4503210414957843 1.460435181045021 1.4705486414820232 1.4806614205373334 1.4907735168130059 1.5008849297156341 1.5109956594157639 1.5211057068340192 1.531215073654267 1.5413237623642582 1.5514317763242593 1.5615391198643642
1.5716457984114416 1.5817518186469752 1.5918571886975301 1.601961918360203 1.6120660193662673 1.62216950568739 1.6322723938903172 1.6423747035480272 1.652476457718021 1.662577683502005 1.672678412705838 1.6827786826244986 1.692878536984408 1.7029780270847847 1.7130772131913523 1.723176166249566 1.7332749700007146 1.7433737236020814 1.7534725448704624 1.763571574283814
1.773670979883274 1.7837709632077787 1.7938717663504429 1.8039736801242736 1.8140770531246706 1.8241823011155258 1.8342899155499375 1.8444004690205658 1.854514613788039 1.8646330668581568 1.8747565705612173 1.884885809315466 1.895021246186934 1.9051628032415648 1.915309210956107 1.9254566059818035 1.9355953851387815 1.9457031647808951 1.955730133596397 1.9655752116085623
1.9750668610538473 1.9840243987414945 1.9988037391195626 0.996442585765679 1.0074741478593825 1.0187349255504523 1.0293144059735728 1.0397016540918669 1.0500059568333755 1.0602631149760895 1.0704868891373343 1.0806851473386057 1.0908637791889375 1.1010275211048324 1.1111801565129165 1.1213246401865105 1.1314632298518723 1.1415976183486445 1.151729053666008 1.1618584407371495
1.1719864240929427 1.182113453118478 1.192239832611627 1.2023657614323697 1.2124913617479371 1.2226167009760724 1.2327418081244759 1.2428666858663489 1.252991319393276 1.2631156828462204 1.2732397439357563 1.2833634672152792 1.2934868163573794 1.3036097556968005 1.313732251237367 1.3238542712702956 1.3339757867136137 1.3440967712540501 1.3542172013515512 1.3643370561506947
1.3744563173314905 1.3845749689232911 1.3946929970990556 1.4048103899624673 1.4149271373369197 1.425043230562833 1.4351586623079566 1.4452734263939857 1.455387517641904 1.4655009317378265 1.475613665120661 1.4857257148926508 1.4958370787536808 1.5059477549601148 1.5160577423089687 1.5261670401481808 1.5362756484139035 1.54638356769582 1.556490799331698 1.5665973455326838
1.576703209541198 1.5868083958238122 1.5969129103021584 1.6070167606258496 1.617119956492629 1.6272225100225641 1.6373244361952874 1.647425753362081 1.6575264838482657 1.6676266546660727 1.6777262983641876 1.6878254540477127 1.6979241686117157 1.7080224982429355 1.7181205102578583 1.728218285360917 1.7383159204235146 1.7484135319012566 1.7585112600204018 1.7686092738695292
1.7787077775197546 1.7888070172513297 1.7989072898616312 1.809008951830918 1.8191124287677132 1.8292182239531865 1.8393269238143077 1.849439196571954 1.8595557778306417 1.8696774330646713 1.8798048811692594 1.8899386544553558 1.9000788567610638 1.910224758839557 1.9203741320985934 1.9305221736558096 1.94065992577143 1.9507726484113546 1.9608403974516295 1.9708486526132298
1.9808112133020028 1.9906668051629568 1.998417185351844 0.99555903220784 1.0045035024332751 1.0145576578571835 1.0246039550490333 1.0347892797623672 1.045010166815586 1.0552313049288657 1.0654392860259312 1.0756308239020405 1.0858069734156541 1.0959702746462383 1.1061234660210628 1.1162689795833576 1.1264087975587953 1.1365444607507007 1.146677130888837 1.156807664207751
1.1669366793671914 1.1770646143811667 1.187191772073338 1.197318355381881 1.207444494313856 1.2175702662869408 1.2276957113482956 1.2378208434775897 1.2479456589226936 1.2580701423002476 1.2681942710203917 1.2783180184599516 1.2884413562045889 1.298564255601281 1.3086866888024373 1.3188086294375665 1.3289300530141885 1.3390509371238863 1.3491712615100417 1.3592910080392446
1.3694101606075204 1.3795287050043605 1.3896466287515385 1.399763920929172 1.4098805719982082 1.4199965736260736 1.4301119185204532 1.4402266002748898 1.4503406132289847 1.4604539523453397 1.470566613104937 1.4806785914223988 1.490789883582337 1.5009004861979924 1.5110103961932666 1.5211196108093408 1.5312281276371429 1.541335944677056 1.5514430604274758 1.5615494740040832
1.5716551852920875 1.581760195134153 1.5918645055574414 1.6019681200440026 1.6120710438499857 1.6221732843806593 1.632274851630249 1.642375758698278 1.6524760223975377 1.6625756639732334 1.6726747099585253 1.6827731931987553 1.6928711540854926 1.7029686420522794 1.7130657173967478 1.7231624535085426 1.7332589395986635 1.7433552840422455 1.7534516184610134 1.7635481026793731
1.7736449306818665 1.7837423376677317 1.793840608221158 1.8039400854639598 1.8140411807850692 1.824144383280476 1.834250267289171 1.8443594952412632 1.8544728112851785 1.8645910187156474 1.874714931234222 1.8848452855937767 1.8949826048092775 1.9051270169572394 1.9152780901383994 1.9254348980333544 1.9355969272372215 1.9457674994266352 1.955964133939625 1.9662466122844644
1.9767943032181026 1.9878808858164179 1.9980340641503624 1.0036506080488528 1.0114686497739582 1.0203606054552365 1.030104014270372 1.040148411680862 1.0502889818736127 1.0604546400052477 1.0706215866002995 1.0807826002851446 1.0909363601880488 1.1010835456202437 1.111225368928028 1.1213630355074142 1.1314975684596642 1.1416297756649907 1.151760268787113 1.161889497314649
1.1720177831519047 1.1821453507106474 1.1922723513531557 1.2023988825409626 1.2125250025218077 1.2226507414435852 1.2327761096846437 1.2429011040491353 1.2530257123399258 1.2631499167055094 1.2732736960640278 1.2833970278347027 1.2935198891511066 1.3036422576881892 1.3137641122027202 1.3238854328624297 1.334006201420646 1.3441264012792538 1.3542460174722355 1.3643650365940694
1.3744834466912024 1.3846012371303091 1.3947183984535974 1.404834922228901 1.414950800900395 1.4250660276443798 1.4351805962335498 1.4452945009124525 1.455407736286303 1.4655202972250048 1.4756321787839588 1.4857433761431398 1.4958538845658624 1.505963699378625 1.5160728159734969 1.5261812298346096 1.5362889365904104 1.5463959320935672 1.5565022125306345 1.566607774563947
1.576712615508612 1.5868167335480772 1.5969201279925118 1.6070227995852304 1.6171247508637676 1.6272259865839473 1.6373265142175848 1.6474263445374975 1.6575254923073235 1.6676239770986026 1.6777218242638554 1.6878190661021168 1.697915743263047 1.7080119064472086 1.718107618473638 1.728202956801003 1.7382980166048037 1.74839291452843 1.7584877932376044 1.7685828269103931
1.7786782277802873 1.7887742538040974 1.798871217428917 1.8089694952515039 1.8190695380525161 1.8291718801797086 1.8392771464562243 1.8493860535887536 1.859499401343988 1.869618046581291 1.8797428510834426 1.8898745938640913 1.9000138452966624 1.9101608252631952 1.920315328947481 1.9304769001246855 1.9406454457835924 1.9508220056115244 1.9610063187352178 1.971167187266088
1.9810894229401466 1.9899496529642968 1.997560381540199 0.9945871139703956 1.0032702783702359 1.0137790571268819 1.0246733478970895 1.0350956529861426 1.045332310692462 1.055503636572756 1.0656522575051677 1.0757925279042122 1.0859291020146307 1.0960635063826447 1.1061963276310476 1.1163278844651685 1.1264584105276305 1.1365880950096432 1.1467170892625864 1.156845508957128
1.1669734376746095 1.1771009318276073 1.1872280259241093 1.197354737478529 1.207481071248118 1.2176070227181812 1.2277325808831396 1.2378577304187037 1.2479824533495951 1.2581067303092255 1.2682305414739257 1.278353867239886 1.2884766886980579 1.2985989879513695 1.3087207483097127 1.3188419543909908 1.3289625921507449 1.3390826488582472 1.3492021130332736 1.3593209743547936
1.3694392235504882 1.3795568522741213 1.3896738529763588 1.3997902187734743 1.4099059433175087 1.420021020670792 1.430135445187242 1.4402492114024974 1.4503623139347062 1.4604747473976014 1.4705865063274421 1.4806975851253288 1.49080797801642 1.5009176790276255 1.5110266819854066 1.5211349805354424 1.5312425681860315 1.5413494383772852 1.5514555845783902 1.5615610004154696
1.5716656798329556 1.581769617291849 1.5918728080088136 1.6019752482408929 1.612076935621682 1.622177869556159 1.632278051683238 1.6423774864174787 1.6524761815844735 1.66257414916846 1.6726714061957852 1.6827679757842624 1.6928638883964935 1.702959183345007 1.7130539106087863 1.7231481330344147 1.733241929010261 1.7433353957180582 1.7534286530809307 1.763521848537397
1.7736151627713332 1.783708816509709 1.7938030784491523 1.8038982742681455 1.8139947964925835 1.8240931146627875 1.8341937847343133 1.8442974558436378 1.8544048713738204 1.864516859577413 1.8746343069493487 1.8847581058817116 1.8948890698243503 1.9050278231704043 1.9151747232027125 1.9253300125873472 1.9354947028292808 1.945673155915363 1.9558790618435278 1.9661465603118866
1.9765277807285686 1.9870409987256061 1.9970988268418206 0.9935495868880441 1.0008108714980941 1.010781263255063 1.0204742348358604 1.0305183165944165 1.040586933234594 1.050663656609001 1.060750240290537 1.070847139110745 1.0809529311224584 1.09106558198423 1.1011831963916399 1.11130426679556 1.1214276778685115 1.1315526310657873 1.1416785612493074 1.1518050683566956
1.16193186716977 1.1720587520663468 1.1821855727421797 1.1923122175716345 1.2024386021872835 1.212564661610775 1.2226903448067417 1.2328156108979473 1.242940426524483 1.2530647639930221 1.2631885999720325 1.2733119145637037 1.2834346906349485 1.2935569133256546 1.3036785696775006 1.3137996483442158 1.3239201393565514 1.3340400339238425 1.3441593242600984 1.3542780034267417
1.3643960651869846 1.3745135038688425 1.3846303142350915 1.3947464913594423 1.4048620305087844 1.4149769270318195 1.4250911762546739 1.4352047733843318 1.4453177134208643 1.4554299910796087 1.4655416007245359 1.4756525363141906 1.4857627913616895 1.4958723589103864 1.505981231526929 1.5160894013135655 1.5261968599417237 1.5363035987090052 1.5464096086219625 1.5565148805072144
1.5666194051537563 1.576723173489612 1.5868261767964513 1.5969284069663232 1.6070298568053893 1.6171305203905384 1.6272303934860184 1.6373294740289237 1.647427762694598 1.6575252635559032 1.6676219848540537 1.6777179399035413 1.6878131481597614 1.6979076364856016 1.7080014406626807 1.718094607204302 1.7281871955405101 1.7382792806607694 1.7483709563157754 1.758462338895269
1.7685535721103178 1.7786448326111155 1.7887363366563143 1.798828347903585 1.808921186292174 1.8190152378039108 1.8291109645681791 1.8392089142369923 1.8493097266633995 1.8594141344402944 1.8695229514032334 1.8796370391126396 1.8897572345968232 1.8998842119753883 1.9100182351437718 1.920158739306947 1.9303036547363601 1.9404481903136326 1.9505815090562797 1.9606755938485394
1.9706518239907778 1.9802708525103092 1.9890770413399967 1.996536741660351 0.9923217333948126 1.0078956547317348 1.0169243365788943 1.0262853354291146 1.0360221832205423 1.0459227179601784 1.055907295188075 1.0659400909679582 1.0760032220481857 1.0860865986050636 1.096183894737546 1.106290867496319 1.1164045693634166 1.1265229191273212 1.1366444362413208 1.1467680633350708
1.156893043252847 1.167018832567909 1.1771450403676706 1.1872713847873941 1.1973976620766575 1.2075237245409975 1.217649464783365 1.227774804427661 1.2378996860380966 1.248024067321532 1.2581479169629204 1.2682712116299097 1.2783939338145072 1.2885160702737342 1.298637610898371 1.3087585478871262 1.318878875138201 1.328998587795188 1.339117681902228 1.3492361541363111
1.359354001593972 1.3694712216163636 1.3795878116415476 1.3897037690763558 1.3998190911826995 1.4099337749750254 1.4200478171269775 1.430161213886255 1.4402739609974184 1.4503860536329123 1.460497486333011 1.4706082529557003 1.4807183466377962 1.4908277597688229 1.500936483979367 1.5110445101457988 1.5211518284134404 1.5312584282403974 1.541364298464436 1.551469427395486
1.5615738029364876 1.5716774127355562 1.5817802443726727 1.5918822855844048 1.601983524530644 1.6120839501077842 1.6221835523135952 1.632282322669933 1.6423802547107698 1.652477344544761 1.6625735915038606 1.6726689988925658 1.6827635748563627 1.6928573333931154 1.7029502955377993 1.7130424907593944 1.7231339586192078 1.7332247507526972 1.7433149332519284 1.7534045895429105
1.7634938238700522 1.7735827655165708 1.7836715739003715 1.7937604446818132 1.8038496169891873 1.8139393817871665 1.8240300912444833 1.8341221686336953 1.8442161176979228 1.854312529319433 1.8644120812778329 1.8745155230216737 1.8846236300670176 1.8947370991484245 1.90485633227953 1.9149810271840875 1.925109485823263 1.9352377435609107 1.945359300100244 1.9554673614876634
1.9655658127065891 1.9757150647209487 1.9860600084130746 1.9959947127317033 0.9910732688760531 1.0007643772217427 1.011358131495176 1.021323319602959 1.031172065601465 1.041076578312318 1.0510296167638062 1.0610253955006907 1.0710557896781057 1.0811130036279897 1.0911904370518055 1.1012828107466062 1.111386040504082 1.121497036612658 1.1316134982377242 1.1417337308863014
1.1518564962264075 1.1619808941818193 1.1721062731240002 1.1822321627921333 1.1923582248092437 1.2024842164576335 1.2126099642806945 1.2227353448946663 1.2328602710604162 1.2429846815810046 1.2531085339776957 1.263231799182405 1.2733544576929243 1.2834764967887637 1.2935979085153542 1.303718688224206 1.3138388335145508 1.3239583434641886 1.3340772180679856 1.3441954578248578
1.3543130634304459 1.3644300355446302 1.3745463746117526 1.3846620807178225 1.394777153473641 1.4048915919162055 1.4150053944232734 1.4251185586378312 1.4352310814005633 1.445342958689456 1.4554541855664411 1.4655647561315828 1.4756746634857396 1.4857838997030473 1.4958924558148232 1.5060003218067588 1.516107486631469 1.526213938238649 1.5363196636252408 1.5464246489081386
1.5565288794221124 1.5666323398456943 1.5767350143579224 1.5868368868288818 1.596937941047166 1.607038160987472 1.6171375311217753 1.6272360367777865 1.6373336645488277 1.6474304027598736 1.657526241995361 1.6676211756956616 1.6777152008309366 1.687808318663597 1.697900535614211 1.707991864250543 1.7180823244261436 1.7281719446038804 1.7382607634117764 1.7483488314940425