TITLE = "Written by meshio v4.3.11"
VARIABLES = "X", "Y"
ZONE NODES = 17470, ELEMENTS = 34390,
DATAPACKING = BLOCK, ZONETYPE = FETRIANGLE
0.0 2.0 6.123233995736766e-17 1.0 1.0105069241858464 1.0223462771571088 1.0342623244232643 1.0463765436505426 1.0586475069989056 1.0710408923206947 1.083524440654323 1.0960701800609236 1.108658384518029 1.121275209845583 1.1339113081946601 1.1465604820687159 1.1592186648699632 1.1718831968867152 1.184552331900783 1.1972249091308436
1.2099001387807113 1.22257746377538 1.235256471798 1.2479368401360251 1.2606183016791426 1.2733006243738727 1.2859835990984705 1.2986670326933574 1.3113507440564933 1.3240345619868636 1.3367183239653486 1.3494018753898989 1.3620850689911133 1.3747677642853402 1.3874498270023432 1.400131128471542 1.412811544976899 1.4254909571036212 1.4381692491051892 1.4508463083200707
1.4635220246659366 1.4761962902364585 1.4888689990225574 1.5015400467766036 1.514209331034662 1.5268767513084092 1.5395422094546543 1.5522056102262998 1.5648668620037671 1.5775258777000611 1.5901825758252703 1.602836881686821 1.615488728689394 1.6281380596819652 1.640784828277372 1.6534290000398824 1.6660705533952525 1.6787094800610292 1.6913457847156532 1.7039794835134012
1.7166106008940685 1.7292391639105331 1.7418651929731521 1.75448868744187 1.7671096038175433 1.7797278232927265 1.7923431039679814 1.80495501089423 1.8175628139177997 1.8301653385551546 1.842760748023731 1.8553462239836536 1.8679174980750064 1.880468166676462 1.8929886988806424 1.9054650265960267 1.9178767297357888 1.9301951897968013 1.9423836370005503 1.9543998516889491
1.9662184277271548 1.9778641622067008 1.9896302323051325 0.9999327351549888 1.014333887152442 1.0272045533623202 1.0396962347952066 1.0521338961453504 1.064609480576777 1.0771392211987962 1.08971358728037 1.1023197123885193 1.114947375917304 1.1275895515090961 1.1402416719623767 1.152900817729462 1.1655651153003814 1.1782333406476813 1.1909046691532332 1.203578520574104
1.2162544636937993 1.2289321581186852 1.2416113191464453 1.2542916969231437 1.2669730643765322 1.27965521045203 1.2923379364650898 1.305021054205464 1.3177043849567462 1.3303877589333593 1.3430710148530776 1.3557539994986707 1.3684365672052174 1.3811185792586356 1.3937999032182173 1.4064804121896481 1.4191599840804605 1.4318385008706698 1.444515847929532 1.4571919134064442
1.4698665877206412 1.4825397631710264 1.495211333684318 1.507881194716752 1.5205492433217915 1.5332153783934748 1.5458795010920061 1.5585415154547997 1.5712013291919718 1.5838588546601724 1.596514010001914 1.6091667204289266 1.621816919616624 1.6344645511616744 1.6471095700344318 1.6597519439309474 1.6723916543927324 1.6850286975129962 1.6976630839808722 1.7102948381237124
1.7229239954832252 1.735550598292756 1.7481746879958695 1.7607962936428834 1.7734154146001924 1.7860319954804194 1.7986458905118816 1.8112568136449718 1.8238642693785625 1.8364674571497253 1.8490651380142331 1.8616554433332362 1.8742355844784293 1.8868013757949997 1.8993463873866328 1.9118604017660845 1.924326829165514 1.936719711484979 1.9490055169693832 1.9611685452873262
1.973300935575757 1.98582270575979 1.9999654253348575 0.9996947531229387 1.0092432678063707 1.0208012601344776 1.0330670283884222 1.045516734548613 1.0580600679983372 1.0706600382465752 1.0832895820040973 1.095934600010689 1.108587990680343 1.1212464172122425 1.1339083431769381 1.1465730595480252 1.1592402198804534 1.1719096240409999 1.1845811201447316 1.1972545623801656
1.2099297951131778 1.2226066491287522 1.2352849431998854 1.2479644876839286 1.2606450885550013 1.273326551128773 1.286008683164856 1.2986912972520588 1.3113742124939793 1.3240572555670609 1.3367402612462664 1.3494230724990872 1.362105540244597 1.3747875228654556 1.3874688855500188 1.4001494995305956 1.4128292412734604 1.4255079916669147 1.4381856352456452 1.45086205948303
1.4635371541775097 1.4762108109548722 1.4888829229047633 1.5015533843669804 1.5142220908807817 1.5268889393084564 1.5395538281424332 1.552216658003137 1.564877332332412 1.5775357582843188 1.5901918478112467 1.602845518938309 1.6154966972123457 1.628145317303324 1.6407913247246415 1.653434677624293 1.666075348580048 1.6787133263077254 1.6913486171612488 1.7039812462655324
1.716611258078104 1.7292387161240914 1.74186370159664 1.7544863104725172 1.7671066487842086 1.7797248257593468 1.7923409447616705 1.8049550924639577 1.817567327614052 1.8301776722739536 1.84278611046228 1.8553926008218116 1.8679971078089206 1.8805996389973603 1.8932002135487842 1.9057984943650623 1.9183922598679213 1.9309724949811227 1.9435100364727012 1.9559286938020897
1.9680843010448608 1.9798256083885903 1.9909377206599108 0.9993489014021085 1.0123522021677933 1.0256095078862655 1.0385341471293572 1.0513238503542368 1.0640754130868106 1.0768014400977874 1.0895082668710077 1.1022010999925065 1.1148844356532577 1.1275618402174308 1.1402359396671637 1.152908571452395 1.1655809656192095 1.1782539045320188 1.1909278492870827 1.2036030350326314
1.2162795410545029 1.228957341524959 1.2416363418380028 1.254316404357323 1.2669973664524974 1.2796790529480697 1.2923612845413948 1.3050438833236822 1.3177266762298687 1.330409497017955 1.3430921872149741 1.3557745963480716 1.368456581692992 1.3811380077097297 1.3938187452897068 1.4064986709058793 1.4191776657333595 1.431855614790945 1.4445324061415845 1.4572079301810457
1.4698820790378235 1.4825547461030482 1.4952258257061881 1.507895212950336 1.5205628037195222 1.5332284948695134 1.5458921846127511 1.5585537731072854 1.5712131632585804 1.5838702617417506 1.596524980249993 1.6091772369726076 1.621826958302787 1.6344740807714155 1.6471185531982824 1.65976033904658 1.67239941896086 1.685035793463619 1.6976694857835493 1.710300544792836
1.7229290480487867 1.7355551049785338 1.7481788603360937 1.7608004982352552 1.7734202473817118 1.7860383886976774 1.7986552675239535 1.8112713142806893 1.823887080331166 1.836503300583016 1.8491210023481388 1.86174169333884 1.8743676840896917 1.8870026376425735 1.8996524988323111 1.9123270140764268 1.9250419394683287 1.9378209123076782 1.9506899680809897 1.963632678585851
1.9764424035320076 1.988682443313906 1.999840146567328 0.9988099027254411 1.00868942183942 1.019729641896651 1.0319791004861338 1.0446732695699754 1.0574925521076946 1.0702982900255666 1.083066568481846 1.0958015421786416 1.1085124769196382 1.1212074976298836 1.133892601448702 1.1465719349369972 1.1592482667140454 1.1719233921152106 1.1845984340281004 1.1972740565020936
1.2099506139575522 1.2226282547157004 1.2353069925173303 1.2479867556723663 1.2606674205857393 1.2733488343787773 1.2860308299139678 1.2987132355450548 1.3113958812230297 1.3240786021023143 1.3367612404491023 1.3494436464127648 1.3621256780518352 1.374807200887289 1.3874880871727524 1.4001682150134458 1.4128474674256137 1.4255257314005707 1.4382028970187033 1.450878856646059
1.4635535042377905 1.4762267347673155 1.48889844379682 1.5015685272028543 1.5142368810700073 1.5269034017654692 1.5395679862076506 1.5522305323425964 1.5648909398427322 1.5775491110432966 1.5902049521327268 1.6028583746141707 1.6155092970563614 1.6281576471534436 1.6408033641153548 1.653446401413722 1.6660867299139361 1.6787243414340274 1.6913592527879626 1.7039915103998517
1.7166211956237285 1.7292484309830998 1.74187338767449 1.75449629489032 1.7671174518575663 1.7797372440387615 1.7923561658308393 1.8049748535436223 1.817594134825983 1.8302151047367223 1.8428392456885931 1.8554686212886267 1.8681061984611613 1.880756400824905 1.8934260971517638 1.906126442570597 1.918876442098107 1.9317100576062138 1.944691063222122 1.9579435172532105
1.9716857690319773 1.9859152550922547 1.999646690135123 0.9981961475036261 1.0113392615537498 1.024578983211013 1.0377425543905372 1.0508319100144559 1.0637783040489872 1.0766242743740686 1.0894041923183764 1.1021419514774484 1.1148532481377 1.127548265077041 1.1402335961185757 1.1529134955172655 1.165590681637654 1.178266857860392 1.1909430546548276 1.2036198570102719
1.2162975570440557 1.2289762569235432 1.241655938329038 1.2543365091633845 1.2670178347022203 1.2796997580853475 1.292382113517271 1.3050647345027042 1.3177474587254974 1.3304301306821689 1.3431126028355134 1.3557947358134654 1.3684763980117365 1.3811574648437308 1.393837817802167 1.4065173434430482 1.4191959323662091 1.4318734782424485 1.44454987692135 1.457225025643766
1.4698988223767568 1.4825711652853586 1.4952419523539255 1.5079110811695373 1.5205784488806136 1.5332439523451658 1.5459074884849202 1.558568954863786 1.571228250511722 1.583885277018052 1.596539939921753 1.6091921504303355 1.6218418275040143 1.634488900348286 1.6471333113667244 1.6597750196377008 1.6724140049958944 1.6850502728243242 1.6976838596993822 1.7103148400857353
1.7229433343587954 1.7355695185522404 1.7481936364053272 1.7608160145467244 1.773437082039352 1.7860573960887398 1.79867767659374 1.8112988535881267 1.8239221338654825 1.8365490969832905 1.8491818380726857 1.8618231889749675 1.8744770775534192 1.8871491421715523 1.8998478299300672 1.9125864117892237 1.9253866216602695 1.9382845468868013 1.95133715593939 1.9646060718149874
1.9778831477682535 1.9893591454281951 1.999402486783455 0.9973545464531296 1.0076153693907555 1.018741654160974 1.0313149650125712 1.0443787728551377 1.057358603626933 1.0702374540420885 1.0830397901365423 1.095791317401526 1.1085106785278882 1.1212102952851635 1.1338981998666369 1.1465795156556922 1.159257471333004 1.1719340650625223 1.1846104951481755 1.1972874402652653
1.209965243202557 1.222644032165846 1.2353238011437877 1.2480044630931093 1.2606858849055937 1.2733679100989348 1.2860503732272053 1.2987331087236136 1.3114159560262768 1.3240987622509046 1.336781383271596 1.349463683793744 1.3621455368123803 1.374826822718665 1.3875074282282633 1.4001872452453716 1.4128661697361062 1.4255441006587306 1.438220938981402 1.450896586807682
1.4635709466241111 1.476243920681084 1.4889154105172753 1.5015853166383117 1.5142535383618052 1.5269199738430903 1.5395845202988285 1.5522470744490429 1.5649075332021192 1.5775657946118784 1.5902217591411547 1.6028753312725654 1.6155264215146339 1.6281749488606143 1.6408208437688419 1.6534640517483166 1.6661045376527557 1.6787422908126914 1.6913773311709546 1.704009716635989
1.7166395519345976 1.7292669993373504 1.741892291753445 1.7545157488559986 1.7671377971133513 1.7797589948780161 1.792380064038716 1.8050019302078617 1.8176257740941504 1.8302530978740355 1.842885812778392 1.855526359687048 1.868177888016028 1.8808445506249296 1.8935320480688018 1.9062487253220077 1.9190078983808474 1.931832789121128 1.9447662533174723 1.9578914370499019
1.9713964320702595 1.985730486513735 1.9990477967516491 0.9964670209877114 1.0101083650874756 1.024167437608403 1.0378874562777312 1.0510130387218917 1.0639264329031266 1.0767321582393408 1.0894790149755285 1.102192501897019 1.1148870276839935 1.1275710493417794 1.1402496118432488 1.1529257295144277 1.1656011779747788 1.1782769651469271 1.1909536194002408 1.203631369875983
1.216310261273539 1.22899022767308 1.2416711401381801 1.2543528372296937 1.2670351442550871 1.2797178850590214 1.2924008888853245 1.3050839940096843 1.317767049288641 1.3304499143959245 1.3431324592619358 1.3558145630580518 1.3684961129489914 1.3811770027566357 1.3938571316254404 1.406536402744656 1.419214722160241 1.4318919976955353 1.4445681379917734 1.4572430516753656
1.4699166466573954 1.482588829571064 1.495259505354295 1.5079285769871347 1.520595945396709 1.5332615095462065 1.5459251667287206 1.558586813091764 1.571246344423991 1.5839036572422796 1.5965586502249935 1.6092112260462612 1.6218612936768375 1.6345087712300526 1.6471535894472102 1.6597956959365006 1.6724350603043363 1.6850716803495476 1.6977055895310456 1.7103368659703944
1.7229656433139011 1.735592123854642 1.7482165944003472 1.7608394454582625 1.773461194370375 1.7860825130265172 1.7987042606265076 1.8113275215156457 1.8239536471573252 1.8365842995016137 1.849221489911605 1.861867602881322 1.8745253863870703 1.887197879595729 1.8998882288950427 1.9125992920633281 1.9253327963689923 1.9380871343935024 1.950849322186466 1.9635766643086165
1.976216363651497 1.9884140391881668 1.9986618571726729 0.995329858506067 1.0066398548012847 1.0190803557505692 1.0322587049553267 1.045078196188624 1.0578345597457013 1.070548370123527 1.0832386910142928 1.0959164763957214 1.108588182277911 1.1212575870997328 1.1339268548979993 1.146597168788033 1.1592691138695712 1.1719429112947535 1.1846185636282867 1.197295946356614
1.2099748659306309 1.2226550965038727 1.235336402838362 1.2480185541206723 1.2607013317878686 1.2733845334333798 1.286067974191712 1.298751486549666 1.3114349192222845 1.3241181355177354 1.3368010114673505 1.3494834338955473 1.3621652985356953 1.3748465082524308 1.3875269714015046 1.4002066003400502 1.4128853100894934 1.4255630171478357 1.438239638445918 1.450915090442389
1.4635892883535957 1.4762621455171885 1.4889335728913018 1.5016034786949106 1.5142717681990225 1.526938343682944 1.5396031045749892 1.5522659478026541 1.564926768383833 1.5775854602980084 1.5902419176849136 1.6028960364280307 1.615547716191867 1.6281968629954977 1.6408433924208552 1.6534872335732735 1.6661283339344328 1.6787666652748487 1.6914022308251395 1.7040350739425507
1.7166652885511866 1.7292930316778068 1.7419185384421825 1.7545421398753174 1.7671642838963453 1.7797855596150967 1.7924067247199766 1.8050287348308724 1.8176527719095679 1.8302802652787915 1.8429128917912665 1.855552527574118 1.8682010944455254 1.880860180745654 1.893530174637859 1.9062083262014717 1.9188844443369268 1.931531723695266 1.9440888426751832 1.9564279641849154
1.968327994674147 1.9795470615473567 1.9981447040524682 1.0048913799631136 1.015446288549926 1.027638379408139 1.0397185361136556 1.0520626194885965 1.064539787436909 1.0770946603481057 1.089693717268033 1.1023187323923382 1.1149599767426903 1.127612120946576 1.140272068658391 1.1529378730109703 1.1656082046377105 1.1782820886354817 1.1909587709536296 1.2036376472282901
1.2163182222038746 1.2290000845626348 1.2416828898679446 1.2543663480639533 1.2670502137555306 1.2797342783474823 1.2924183635360622 1.3051023158493087 1.3177860020354708 1.3304693051534713 1.3431521212510804 1.3558343565372268 1.3685159249701149 1.3811967461952255 1.3938767437779584 1.4065558436850507 1.419233972977417 1.4319110586846477 1.4445870268382843 1.4572618016473116
1.4699353048050976 1.4826074549224773 1.4952781670869861 1.5079473525534812 1.5206149185767643 1.5332807684025451 1.5459448014392485 1.558606913640104 1.5712669981326728 1.583924946141939 1.5965806482633236 1.609233996153782 1.6218848847228968 1.6345332149216258 1.6471788972445307 1.659821856082125 1.6724620350834378 1.685099403715165 1.6977339652320034 1.7103657663015843
1.7229949085528957 1.735621562331807 1.7482459829363848 1.7608685295403497 1.7734896868443712 1.786110089129474 1.798730545657965 1.8113520649727777 1.8239758730323075 1.8366034152586719 1.8492363235544278 1.8618763125972075 1.8745249389516125 1.887183102188525 1.8998500820237665 1.9125218182495751 1.9251882284057176 1.9378308717329964 1.9504273701350001 1.962964589211228
1.975463493534133 1.9878655981657434 1.9975461346145948 0.9940105495322377 1.014123144059874 1.0236658079420395 1.034579887389886 1.046392686788467 1.058590239638169 1.0709872952791208 1.0834934455782914 1.096062347113474 1.1086692099091524 1.1213002193197412 1.1339473031705887 1.1466054918111115 1.1592715628817385 1.1719433273031266 1.1846192391477581 1.1972981727882621
1.2099792891886323 1.2226619516009525 1.235345669906198 1.248030062375315 1.2607148285317906 1.273399729394272 1.286084572803164 1.298769202350474 1.3114534889199359 1.3241373241496757 1.3368206153288054 1.3495032813740007 1.3621852496259454 1.3748664532724229 1.3875468292535527 1.4002263165406368 1.4129048547070961 1.4255823827305216 1.4382588379807784 1.4509341553615906
1.4636082665831842 1.476281099551939 1.4889525778702355 1.501622620446266 1.514291141219714 1.5269580490154284 1.5396232475436202 1.5522866355721228 1.5649481073039935 1.5776075530025897 1.5902648599163838 1.6029199135674035 1.6155725994806451 1.628222805447141 1.6408704244307062 1.6535153582478341 1.6661575221714913 1.6787968506322462 1.6914333042133782 1.7040668781585215
1.7166976126277564 1.729325604945273 1.7419510240685134 1.7545741274577111 1.7671952804063191 1.7798149776570007 1.7924338666929696 1.805052771328852 1.8176727129250931 1.8302949244214803 1.8429208490788964 1.8555521111861146 1.8681904411474572 1.880837538433012 1.893494885719315 1.906163660132354 1.9188453360076203 1.9315447848758518 1.9442825560548345 1.9571395488186523
1.9703513319760888 1.984272493565373 1.996952876774191 0.992515616420829 1.0033101028490914 1.0134868343371044 1.026309356286834 1.0394756976189032 1.0521414982373765 1.0646779262966088 1.0772090174665585 1.089768662008649 1.102359977629329 1.1149776220486172 1.1276152299150661 1.14026744949391 1.1529302124855925 1.1656005294070784 1.1782762225571175 1.1909557035330254
1.203637808150396 1.2163216782612545 1.2290066776959752 1.2416923321980369 1.2543782861558663 1.2670642711749716 1.2797500830785045 1.2924355649634358 1.3051205946408833 1.3178050752693706 1.3304889283241366 1.3431720882817633 1.3558544985680994 1.368536108439056 1.3812168705520582 1.3938967390503132 1.4065756680292698 1.4192536102895543 1.4319305163066158 1.444606333366845
1.4572810048349016 1.4699544695286217 1.4826266611872894 1.4952975080269424 1.5079669323833296 1.520634850449664 1.5333011721227692 1.5459658009779926 1.558628634400654 1.5712895639101077 1.5839484757220696 1.5966052516057923 1.6092597701054254 1.6219119082094509 1.6345615435685543 1.6472085573806592 1.6598528380817874 1.6724942860023333 1.6851328191691919 1.6977683804534074
1.7104009462778706 1.7230305371061503 1.7356572299255284 1.7482811729052494 1.7609026023402503 1.7735218618598794 1.7861394236596593 1.7987559111616547 1.8113721219793957 1.823989049322157 1.836607899047171 1.8492300986677481 1.861857294423954 1.8744913347080747 1.8871342461476521 1.899788226336343 1.9124556932201466 1.9251393291505459 1.9378406513531292 1.950553720654627
1.9632498853770337 1.9756662534145946 1.9867639881184715 1.99621812630114 0.9909585459793308 1.002935151612861 1.0224845049965405 1.0338812608620487 1.0460329322408943 1.058414008065954 1.0708969467280383 1.0834390106413267 1.0960215530003228 1.1086337080639082 1.1212678505819542 1.1339182385987678 1.1465804943847049 1.1592513003101572 1.1719281652505722 1.184609234099404
1.1972931345934783 1.209978857077918 1.2226656619609486 1.2353530094765797 1.2480405069020986 1.2607278691685546 1.2734148896099278 1.2861014183133872 1.298787346127045 1.3114725928553017 1.3241570985403017 1.336840817009856 1.3495237110850722 1.3622057490003026 1.374886901706552 1.387567140817217 1.4002464370197878 1.4129247588248945 1.4256020715593882 1.4382783365362803
1.450953510353903 1.4636275442914821 1.4763003837797035 1.488971967934001 1.5016422291458693 1.5143110927341694 1.5269784766646712 1.539644291352411 1.5523084395680369 1.564970816476814 1.5776313098474053 1.5902898004773578 1.6029461628937096 1.6156002664003928 1.62825197655939 1.6409011572097592 1.6535476731474874 1.6661913936091841 1.6788321967227187 1.6914699751069093
1.7041046428177313 1.7167361438477131 1.7293644623839568 1.7419896350138069 1.7546117650290038 1.7672310389124006 1.779847744989084 1.7924622940845882 1.8050752418708775 1.817687312451709 1.8302994227971696 1.8429127082614467 1.855528551490503 1.8681486225669222 1.8807749518564654 1.893410089347269 1.906057478758342 1.9187223405467875 1.9314137083919438 1.9441464161076367
1.9569428617630436 1.9698859568504945 1.9830140773491132 1.9955019079943705 0.9891955413298199 1.000658128761971 1.0133600746171845 1.0265904726474266 1.0392362159074617 1.0518419809382145 1.0644270609180246 1.0770189370226668 1.0896270950261182 1.1022532131294982 1.114895677255649 1.127551707734651 1.1402183614098116 1.15289297554635 1.1655733255989915 1.1782576411977612
1.1909445590916985 1.2036330546634448 1.2163223724741905 1.229011964658745 1.2417014399446866 1.2543905231801027 1.2670790240595797 1.2797668133998963 1.2924538053757832 1.3051399443418565 1.3178251951210083 1.330509535878537 1.343192952905327 1.3558754367984052 1.368556979656348 1.381237573006041 1.39391720625206 1.4065958654958965 1.419273532613924 1.4319501845138551
1.444625792512418 1.4573003217941014 1.4699737309237428 1.482645971395727 1.4953169872104544 1.5079867144753463 1.5206550810334973 1.5333220061286525 1.545987400120862 1.5586511642733352 1.5713131906380273 1.5839733620756613 1.59663155245553 1.609287627091842 1.6219414434867727 1.6345928524658033 1.6472416998084143 1.6598878284962155 1.6725310817205232 1.6851713068110088
1.6978083602646024 1.7104421140670112 1.7230724635053898 1.735699336666739 1.7483227057999613 1.760942600688361 1.7735591241346522 1.7861724696076036 1.798782941051675 1.8113909748424473 1.8239971639132473 1.8366022841887604 1.8492073234810924 1.8618135121182564 1.8744223497307955 1.8870356035228517 1.8996551874193022 1.9122826158346407 1.924917049070988 1.9375490857809987
1.9501342690127585 1.9625198349895348 1.9744671528120001 1.9854442603908342 1.9946275093309418 0.9991301372141819 1.0093082872816832 1.0200990955013025 1.0326293530651836 1.0452307231359785 1.057879474500663 1.0705288900729122 1.083178459549005 1.0958327457523145 1.1084944608284142 1.1211641223353697 1.1338409140929169 1.146523450495054 1.1592102479432194 1.1718999615350592
1.1845914757191063 1.1972839164368625 1.2099766269186705 1.2226691306229516 1.235361093134851 1.2480522882051681 1.2607425696190453 1.2734318489002687 1.286120078150422 1.2988072371118191 1.3114933235648167 1.3241783462853578 1.3368623199286191 1.3495452613382455 1.362227186895643 1.374908110617424 1.3875880427828418 1.4002669889298254 1.412944949101253 1.4256219172554674
1.438297880779201 1.4509728200590202 1.4636467080808766 1.4763195100374735 1.4889911829309301 1.5016616751644183 1.5143309261215783 1.5269988657371254 1.539665414066538 1.552330480867355 1.5649939652098348 1.5776557551408492 1.5903157274322266 1.6029737474536494 1.6156296692210133 1.6282833356840465 1.6409345793321481 1.6535832232147054 1.6662290824912107 1.6788719666465066
1.6915116825262064 1.7041480383649767 1.7167808489938905 1.7294099424206015 1.7420351679765143 1.7546564062194872 1.7672735807734918 1.7798866722881364 1.792495734727392 1.8051009142690142 1.8177024712276046 1.8303008055764276 1.8428964866708877 1.8554902871413304 1.8680832182198115 1.8806765556913572 1.893271825197257 1.905870672295831 1.9184744723148766 1.9310835512687288
1.943697966791889 1.9563055604886148 1.9688418498056708 1.9816151780608777 1.9937803909789746 0.9873215684652249 0.9978098875777413 1.0112846195457101 1.0249835831968248 1.0382796224170399 1.0511849338952077 1.0639584975715468 1.0766767943388162 1.089373757937866 1.102064346262279 1.1147547690876252 1.1274471533721635 1.1401417831724923 1.152838191227458 1.1655356833738466
1.1782335771476455 1.1909312967748846 1.2036283981111997 1.2163245617088478 1.2290195735060225 1.2417133026992682 1.2544056811247004 1.2670966857829593 1.279786324823009 1.2924746267071847 1.3051616320612396 1.3178473876776715 1.3305319421866335 1.343215342984154 1.3558976340867188 1.3685788546532203 1.3812590379759266 1.3939382107910798 1.4066163927980988 1.4192935963058462
1.4319698259468185 1.444645078416884 1.4573193422107267 1.4699925973324728 1.4826648149679948 1.4953359571106546 1.5080059761364466 1.5206748143278876 1.5333424033491043 1.5460086636775607 1.5586735040011062 1.5713368205928724 1.5839984966811818 1.5966584018375767 1.609316391413553 1.6219723060660673 1.634625971423632 1.6472771979590817 1.6599257811518773 1.6725715020418341
1.685214128296656 1.6978534159365917 1.710489111879361 1.7231209574859752 1.7357486933029502 1.7483720652109287 1.7609908322114787 1.7736047761280926 1.7862137135909166 1.7988175108548592 1.8114161023062085 1.824009513945315 1.836597893542886 1.849181548941552 1.8617609932054178 1.8743369846107851 1.8869105162139312 1.8994826144376662 1.9120535473774332 1.9246203454864832
1.9371697452008851 1.9496648987127119 1.9619481578595908 1.9734240775792873 1.983995484346443 0.9853462132262794 0.994118298123848 1.0069434451720278 1.0191597011251787 1.03184630318696 1.0446648138465202 1.0574324872716083 1.070172770511667 1.0828975249809818 1.095614407138356 1.1083274957623848 1.1210386710133229 1.1337486180000633 1.1464574357926636 1.1591649771683228
1.1718710264016134 1.1845753846489235 1.1972779045806707 1.209978498458188 1.2226771334117958 1.2353738215228416 1.2480686087225856 1.2607615644608656 1.2734527729481788 1.2861423261622862 1.2988303185086396 1.3115168428967194 1.3242019879608873 1.3368858361676283 1.3495684625843731 1.3622499341243313 1.3749303091194818 1.3876096371070978 1.4002879587426893 1.4129653057744527
1.4256417010314988 1.4383171583913932 1.4509916827024558 1.4636652696436203 1.476337905510044 1.4890095669166 1.5016802204141546 1.5143498220156635 1.527018316630629 1.5396856374078154 1.5523517049873483 1.5650164266648172 1.5776796954718681 1.5903413891804767 1.6030013692418519 1.61565947967629 1.628315545937624 1.6409693737857665 1.653620748213601 1.6662694324902791
1.6789151674020095 1.691557670792949 1.704196637532316 1.716831740058271 1.7294626296742903 1.7420889388019487 1.7547102844328082 1.7673262730900485 1.7799365077448788 1.7925405974027615 1.8051381705994827 1.8177288950279418 1.830312507288631 1.842888859894391 1.8554579981972619 1.8680202898664873 1.8805766483146693 1.8931289300505245 1.9056806733127032 1.9182385798535628
1.9308157961643646 1.9434399493249297 1.9562012070574306 1.9691768313659672 1.9811600178743485 1.9927526933289532 0.9830614290153069 1.0027809099327663 1.0141713311879832 1.026003225319328 1.0383620722774956 1.0509828079519314 1.0636850896833732 1.0764149328121637 1.0891511491855401 1.1018863100484848 1.1146180193876274 1.1273456520138683 1.140069175967011 1.1527887415402946
1.1655045457989 1.178216793098448 1.1909256865499493 1.2036314275496596 1.2163342160500803 1.2290342498316928 1.2417317228481306 1.2544268231377047 1.267119730746578 1.2798106159471934 1.2924996378840934 1.3051869436712908 1.3178726679006292 1.330556932488754 1.3432398467802784 1.3559215078275138 1.3686020007764177 1.3812813993001696 1.393959766033635 1.4066371529726671
1.4193136018112686 1.431989144196882 1.4446638018897153 1.4573375868161353 1.4700105010091242 1.4826825364307135 1.495353674672484 1.5080238865307076 1.520693131452775 1.5333613568511677 1.5460284972806646 1.5586944734737098 1.5713591912281692 1.584022540141198 1.5966843921829794 1.6093446001050444 1.6220029956801953 1.6346593877754683 1.6473135602666034 1.6599652698130731
1.6726142435272104 1.685260176589988 1.697902729889359 1.7105415277843725 1.7231761561289858 1.7358061607239181 1.7484310464063728 1.761050277047314 1.7736632768311842 1.7862694334014038 1.798868103880844 1.8114586256391634 1.8240403354025423 1.8366126037325854 1.849174898802142 1.8617269075616971 1.8742687722314884 1.8868015644980711 1.8993282635183875 1.9118558309148797
1.9243997957412808 1.9369948727650599 1.9497195391025963 1.9628896666484268 1.9777547556744526 1.9917146635903857 0.9807939854456912 0.9933642489229487 1.0065754949514714 1.0192454463795917 1.0317876804604755 1.0444322524635565 1.0571554243402854 1.0699088149460343 1.0826713879638794 1.0954324381280096 1.1081875037046354 1.1209351731173496 1.133675383306439 1.146408603658092
1.1591354687521251 1.1718566238078298 1.1845726669441867 1.19728413344199 1.209991496744622 1.222695174982184 1.235395538373936 1.248092915844888 1.2607876004667378 1.2734798538163319 1.2861699094790762 1.2988579759199277 1.3115442388958811 1.3242288635308976 1.3369119961309854 1.3495937657861254 1.3622742857854846 1.3749536548600712 1.3876319582600856 1.4003092686707104
1.4129856469684812 1.4256611428197727 1.4383357951227493 1.451009632293888 1.4636826723999392 1.4763549231355515 1.4890263816459768 1.5016970341930687 1.5143668556612666 1.5270358088984104 1.5397038438839707 1.5523708967146728 1.5650368883945236 1.5777017234130564 1.5903652880921788 1.6030274486788447 1.6156880491581025 1.6283469087595368 1.6410038191306957 1.6536585411545361
1.6663108013957098 1.6789602881735253 1.691606647278923 1.7042494773790418 1.7168883251857348 1.7295226805024972 1.7421519713058047 1.754775559061146 1.767392734524026 1.780002714344392 1.792604638908938 1.8051975720766613 1.8177805038869757 1.8303523581118 1.842912007990803 1.8554583063080847 1.8679901417955005 1.8805065469584057 1.8930069130715124 1.9054914415264261
1.9179621025541167 1.9304246097060151 1.9428910097189698 1.9553571419949325 1.967917332347625 1.9799658961858884 1.9906783274701243 0.97817914351315 0.9888046562564705 0.9995946306309313 1.0123596941643518 1.0251012068429117 1.037824513091973 1.0505903574126054 1.0633825625517102 1.0761792113109687 1.088970334080298 1.1017513443101765 1.114520865271653 1.127279134692825
1.14002707946687 1.1527658383879116 1.1654965392838523 1.1782202083957927 1.1909377440610003 1.203649919184709 1.2163573947850155 1.2290607362579185 1.2417604287737107 1.2544568905424303 1.2671504837504393 1.2798415234009297 1.2925302844190654 1.3052170073773777 1.3179019031429378 1.330585156683627 1.3432669302127243 1.3559473658039816 1.3686265875735557 1.3813047034988817
1.3939818069256336 1.406657977800409 1.4193332836570838 1.4320077803776858 1.444681512743315 1.4573545147864415 1.4700268099523985 1.4826984110747485 1.4953693201662408 1.5080395280240166 1.5207090136445174 1.5333777434399785 1.546045670244313 1.5587127320915652 1.5713788507447681 1.5840439299470448 1.596707853360125 1.609370482148444 1.6220316521600662 1.634691170649574