TITLE = "Written by meshio v4.3.8"
VARIABLES = "X", "Y"
ZONE NODES = 6852, ELEMENTS = 13359,
DATAPACKING = BLOCK, ZONETYPE = FETRIANGLE
0.0 2.0 6.123233995736766e-17 1.0 1.0169097707759125 1.0359609692486744 1.055154392616263 1.074703839775778 1.0945331334145239 1.1145440495565246 1.1346882354531385 1.1549292850637398 1.1752411338140731 1.19560473926394 1.2160059687080063 1.2364341971526913 1.2568813525340696 1.2773412504144273 1.2978091186781209 1.318281249918553
1.3387547421900834 1.3592273028280286 1.3796970985842651 1.4001626406002765 1.4206226960897745 1.441076220814747 1.4615223079574966 1.4819601500653414 1.5023890115102623 1.522808209434306 1.5432171014740452 1.5636150786755036 1.5840015618987295 1.6043759996099316 1.6247378641636465 1.6450866423105537 1.6654218134334722 1.6857428054243644 1.7060489123511429 1.726339148747107
1.7466120002207468 1.766865005590834 1.787094066653218 1.8072923226157265 1.8274483452903036 1.8475433479906602 1.8675471915280697 1.887413700767494 1.907079418379018 1.92646924622493 1.945539313816079 1.9643319097482173 1.983299901598768 0.9998277494062345 1.0230214293235933 1.0437428390840309 1.0639057928445248 1.0840148186142702 1.1041687661609954 1.1243886705862611
1.144671012274731 1.1650054642440841 1.1853811735581579 1.2057885297925603 1.226219500384463 1.2466675318031752 1.267127340183042 1.2875946923378965 1.3080662066697155 1.3285391811957554 1.349011448899859 1.3694812582799298 1.389947176174134 1.4104080097815388 1.4308627449375002 1.4513104980124243 1.4717504791810878 1.492181965195086 1.5126042801407458 1.5330167829512689
1.5534188606443926 1.5738099263571732 1.5941894212256285 1.6145568189789359 1.6349116317399803 1.655253414871695 1.6755817676483271 1.6958963248025936 1.7161967310627242 1.7364825854795058 1.756753332088126 1.7770080525993694 1.797245073209534 1.8174612067338733 1.8376502731141935 1.857800251258759 1.8778882243577601 1.8978735881447253 1.9176974790294183 1.9373229395241383
1.956893564850477 1.9770929361509924 1.9999103973590424 0.9992163915202041 1.014684173429655 1.0332895142022704 1.0531353368805476 1.073331761429944 1.0936173169334396 1.1139489690669744 1.1343115325106894 1.154699944369778 1.175110807158755 1.1955406365937895 1.2159857637110105 1.236442576886222 1.25690773418959 1.2773782782323806 1.2978516693440243 1.3183257669788413
1.3387987841392541 1.3592692314092885 1.3797358604123668 1.4001976118606596 1.420653570495098 1.4411029275930185 1.4615449508958 1.4819789614636978 1.5024043168923409 1.5228204003985295 1.5432266154285088 1.5636223856205893 1.5840071601496546 1.6043804246954103 1.6247417185294708 1.64509065855141 1.6654269715922634 1.6857505370441879 1.7060614429650272 1.7263600602389657
1.7466471407230635 1.766923944861408 1.7871923966761347 1.8074552338197807 1.8277160235109517 1.8479786231535298 1.8682448149802526 1.8885064877036855 1.9087232777606333 1.9287731545279914 1.9484058238133306 1.967364650936215 1.9853052010105692 0.998327238174205 1.019467959035677 1.0410051951961046 1.0621013848119574 1.082805989386494 1.1033617627424417 1.123857746387797
1.1443305679050793 1.1647966220363186 1.1852630839570306 1.2057326317744486 1.2262056861113457 1.246681568504256 1.2671591236175315 1.2876370510701414 1.3081140736221892 1.3285890128178899 1.3490608134765334 1.3695285412917535 1.3899913676096263 1.4104485493732226 1.4308994086325477 1.4513433139518228 1.471779664905011 1.4922078802716932 1.512627390310774 1.5330376334725457
1.5534380580427265 1.5738281294669014 1.5942073444832425 1.6145752537286475 1.634931495251188 1.6552758424902534 1.6756082719960035 1.6959290588149918 1.7162389116611463 1.736539166693318 1.75683206959006 1.777121193668612 1.7974120728363892 1.8177131832987863 1.8380375040041619 1.8584050222481678 1.878846544159634 1.8994076567757978 1.920142290697334 1.941036321317795
1.961733569731406 1.9815187556142404 1.9995857056467612 0.9969376519260703 1.0131969846867261 1.0311557107639495 1.0515239531194611 1.0721577821546404 1.092794757998736 1.1133838974695562 1.1339334854399683 1.1544573203161896 1.174965817424386 1.1954654156700208 1.215959670677933 1.2364503132663447 1.256937995188061 1.2774227618779102 1.2979043367757583 1.3183822859233072
1.3388561093040767 1.3593252883609066 1.3797893078519452 1.400247663137799 1.420699859655306 1.4411454087016402 1.4615838220789479 1.4820146072404499 1.5024372640986423 1.5228512844673152 1.5432561551357733 1.5636513657809457 1.584036423306589 1.6044108747814547 1.6247743419853802 1.6451265717666312 1.6654675081474042 1.6857973947082778 1.7061169198079678 1.7264274236904564
1.746731197450883 1.767031923054136 1.787335339330998 1.8076502895017021 1.8279904537118032 1.848377396324792 1.8688463032140878 1.8894575633737765 1.9103217334990792 1.9316543323005795 1.9538361578916164 1.9768185826762417 1.999084756538432 0.9953629004054614 1.0173208849682032 1.039967458172465 1.0612583123610975 1.0821710049360465 1.1028982038815134 1.1235311778539312
1.1441123605072838 1.164662688744921 1.1851933032258832 1.2057104507984058 1.226217750125162 1.2467173207603965 1.2672103866926043 1.2876976187279565 1.3081793379378488 1.3286556404209158 1.3491264750415863 1.3695916918987525 1.3900510721177886 1.4105043456375979 1.430951201381748 1.4513912928104642 1.4718242409866265 1.4922496367718165 1.5126670435037943 1.5330760014461682
1.5534760354241428 1.573866667365764 1.5942474359706382 1.6146179264589118 1.6349778143668958 1.6553269287486634 1.675665342094661 1.6959934971349868 1.7163123851319597 1.7366237975988952 1.7569306861580776 1.77723768841423 1.797551920911563 1.8178842219508373 1.838251180290548 1.8586785594566655 1.8792071281854863 1.8999021747251275 1.9208647565180283 1.9422154441869641
1.9636459815357357 1.9821453671474725 1.9984531136800272 0.9932307448707665 1.0112260742090067 1.031296321864215 1.051446803609206 1.0719755633197647 1.0925898956283175 1.1132063600268298 1.1338028609925115 1.154376687160853 1.1749302965196553 1.1954670218073637 1.2159898434028547 1.2365011376715738 1.257002705583938 1.277495866930366 1.2979815575685179 1.318460413406898
1.3389328383515255 1.359399057286919 1.3798591562178955 1.4003131119068797 1.4207608132458127 1.4412020763830755 1.4616366553734579 1.482064249892339 1.502484511396443 1.5228970490538265 1.5433014368294822 1.563697223321682 1.5840839463190275 1.6044611546096896 1.6248284403433797 1.6451854862472397 1.6655321332727122 1.6858684759105742 1.706194994738974 1.72651273945627
1.746823582266111 1.7671305743948043 1.7874384647180046 1.807754493221314 1.8280896820173376 1.8484610670505632 1.8688957435789435 1.8894383700152728 1.9101652799947908 1.9312123094442732 1.9528837043614176 1.9759524354151798 1.9975359786168163 1.00904761617519 1.0248684619037716 1.0426374255045343 1.0622229482052905 1.0824869493476095 1.1029853758757464 1.1235507994760763
1.1441250535334568 1.1646894478401906 1.18523905873452 1.2057736810424753 1.2262946115916373 1.2468034824750425 1.267301834396567 1.2877909721638463 1.3082719335106983 1.3287455037597786 1.3492122470462247 1.36967254079122 1.3901266075020136 1.4105745416298772 1.4310163310560755 1.451451873668157 1.4718809898846958 1.4923034321404078 1.5127188924072033 1.5331270088950246
1.5535273732113224 1.5739195395025005 1.5943030374828202 1.6146773917879025 1.6350421507574744 1.6553969285043977 1.675741464864345 1.6960757083974813 1.7163999278763933 1.7367148575706415 1.7570218812560952 1.777323259541758 1.7976224045105647 1.817924200572729 1.8382353404694638 1.8585645066644834 1.8789217009880865 1.899314085316005 1.91973106959073 1.9401058383793726
1.9603662399736275 1.9798353169002951 1.9965390943816523 0.9907377513724435 1.0077519802981927 1.0290132732580244 1.050921714488279 1.0719587341153796 1.0926839082027124 1.113311485271978 1.1339042423931842 1.1544776824214011 1.1750348475076382 1.1955764931671238 1.216103509277006 1.2366171674554562 1.2571189133536178 1.2776101597875578 1.2980921630390119 1.3185659698148142
1.3390324082782452 1.3594921020306654 1.3799454935735458 1.4003928696347772 1.420834384522964 1.441270079907386 1.4616999006544231 1.4821237069869002 1.5025412835397876 1.5229523460371106 1.5433565464223786 1.5637534774121429 1.5841426776585137 1.6045236390282318 1.6248958179276691 1.6452586530617006 1.6656115923419716 1.6859541315056303 1.7062858657057036 1.726606551670376
1.7469161696769764 1.7672149566547588 1.7875033426767943 1.8077816338688524 1.8280490726751009 1.84830140024866 1.8685248780257826 1.8886824040446686 1.9086840125358233 1.9283377882634698 1.9473047132317725 1.9652612769575026 1.9952052656605328 0.9879485056648973 1.0020848122582602 1.0224318116243458 1.0420096405912422 1.0623154996895525 1.0827447906308814 1.103240964372639
1.1237742394727686 1.1443218071658054 1.1648689094126687 1.1854076080980724 1.2059344993327576 1.2264487809337452 1.2469509639071235 1.2674421119159782 1.2879234282788654 1.308396049975441 1.3288609576717125 1.3493189474079867 1.3697706328842991 1.3902164611655485 1.4106567326424002 1.4310916206081514 1.451521188308502 1.4719454026551702 1.492364144471272 1.5127772154537567
1.5331843421746045 1.5535851775097864 1.5739792999578741 1.5943662114410182 1.6147453344007265 1.6351160093054837 1.655477494000727 1.675828966437963 1.6961695317516485 1.7164982325340028 1.7368140560008611 1.7571159211887057 1.7774026097535436 1.7976725697781557 1.8179234656745253 1.8381512698126443 1.8583486640801024 1.878502848183035 1.89859465756779 1.9186046581616998
1.938539748791157 1.9584375467037707 1.9784482501867868 1.9936633507682047 0.9845238915428506 1.0159922036571134 1.0342717296531385 1.0532468129396864 1.0730829727037328 1.093314619365693 1.113729780231186 1.1342237287672379 1.1547457964030445 1.1752722473929285 1.1957925842636439 1.2163027434299423 1.236801723579694 1.25728990748181 1.2777682270424007 1.2982377537194774
1.3186995057693691 1.3391543662444763 1.3596030567903161 1.3800461384041873 1.4004840239576857 1.4209169945383302 1.4413452155588817 1.461768750662675 1.4821875725321765 1.502601570225997 1.5230105528730211 1.543414249586076 1.5638123054145394 1.5842042731042951 1.6045896004347056 1.624967613012434 1.6453374926663187 1.6656982520122403 1.6860487062585 1.7063874436693691
1.7267127959419495 1.7470228089776274 1.767315214709292 1.7875874129181708 1.8078365102948044 1.828059590233517 1.8482547501682474 1.868424438072232 1.8885851063948453 1.9087937827080732 1.9292146039820672 1.950276212094136 1.9723054876306734 1.9921355543850854 0.9809440389773734 1.0010134624542348 1.0223305569548162 1.0426177739929754 1.0628110249861293 1.0831775316352117
1.1036320867383456 1.1241310845866868 1.1446475504268585 1.1651660433538884 1.1856785801484144 1.206181629393888 1.2266741360045497 1.247156319737989 1.2676289820107542 1.288093123789775 1.3085497456889106 1.3289997515300815 1.3494439089582242 1.3698828403031897 1.3903170284156492 1.4107468288909832 1.4311724839350672 1.4515941352998945 1.4720118349083944 1.4924255523896925
1.5128351789860663 1.5332405273056369 1.5536413262651938 1.57403721035808 1.594427702153544 1.6148121867625125 1.6351898769961022 1.6555597682400072 1.6759205828384045 1.6962707051782393 1.7166081107572988 1.7369302952788293 1.757234213457567 1.777516243581046 1.7977722095194983 1.8179975309058392 1.8381876459141142 1.8583389200246367 1.8784501180481838 1.8985228916514616
1.918553544145235 1.9384632823767414 1.9578021768522358 1.9753893843992398 1.9902443601069266 0.9766490804711068 0.9937293834511947 1.011059388984577 1.0316377768421159 1.0523073328928194 1.0728959800102682 1.0934739814002141 1.1140289944532489 1.1345649486233038 1.1550854189889428 1.1755923752805937 1.1960870348155002 1.2165704472069945 1.237043690567898 1.2575078744448245
1.2779640845597184 1.2984133288011834 1.3188565019009277 1.3392943689535288 1.3597275628066867 1.3801565900211 1.4005818412202324 1.4210036029214765 1.441422068953315 1.4618373502478137 1.4822494821893815 1.502658428854003 1.5230640834348483 1.5434662639554284 1.5638647030493122 1.5842590301689505 1.6046487441296 1.625033173495613 1.645411422148523 1.6657822977168644
1.6861442217887816 1.706495123421715 1.7268323217497208 1.747152409445916 1.767451156171674 1.7877234616144022 1.8079634125140727 1.8281645727525249 1.8483208296380393 1.8684285450414662 1.8884917851194176 1.9085334690080444 1.9286196105009108 1.9488681754618387 1.9693626077970336 1.9883915573376543 0.9725221456499127 0.9956081368692894 1.0186174531339476 1.041068850450798
1.062387690165239 1.0832425469970266 1.1039149470843965 1.1244970205461384 1.1450303420897496 1.1655348482138823 1.1860204879829592 1.2064925120794099 1.2269539467558022 1.2474067446192796 1.2678523103623174 1.2882917366582822 1.3087259097868276 1.3291555589541355 1.349581282368427 1.3700035641301291 1.3904227874694417 1.4108392462052688 1.431253154824285 1.4516646570292364
1.472073832402162 1.492480700707068 1.5128852231967105 1.5332873000318792 1.5536867625395558 1.5740833585165863 1.594476728136269 1.6148663672835837 1.635251574450821 1.655631376916059 1.6760044322370302 1.6963689027632805 1.7167223045874394 1.7370613382055118 1.757381713954666 1.7776779834752923 1.7979433621287546 1.8181694478665025 1.8383455589595499 1.858456962138885
1.878479994537579 1.8983692006267727 1.9180221439366159 1.9372096010924358 1.9554309884986885 1.9722268068123765 0.9676624267485026 0.9878195618616128 1.0087424782562813 1.0304370165149934 1.0520266095757091 1.07308726741434 1.0938503054409805 1.1144694555879695 1.1350119102890153 1.1555112236466394 1.1759849123155717 1.196442360486643 1.2168887445436567 1.237327050050897
1.257759112728824 1.2781861514900585 1.2986090386142 1.3190284360134772 1.3394448645833028 1.3598587407612148 1.3802703972633006 1.4006800961902393 1.4210880382960351 1.4414943700477332 1.461899189042166 1.4823025477932172 1.5027044555478002 1.523104877461251 1.5435037300647898 1.563900871426585 1.5842960837037956 1.6046890448916162 1.6250792855336353 1.645466125108031
1.665848582094579 1.686225252060951 1.7065941507012894 1.7269525253530131 1.7472966507263716 1.767621641666111 1.787921330092765 1.808188246975584 1.8284137089585455 1.8485879646111196 1.868700323186309 1.8887388296918615 1.9086895127711931 1.9285274944413329 1.9482318768339724 1.9675449059341186 1.9861363907958969 0.9621669354342153 0.9811400013804992 1.0010079049400236
1.0214008579343983 1.0422191842394433 1.0631454616599503 1.0839016787539435 1.104515946652691 1.125046978878404 1.1455298103107314 1.1659844436343931 1.186422184303381 1.206849412217595 1.227269750333137 1.2476852954835742 1.2680973067557235 1.2885065835856189 1.3089136693885017 1.329318959189602 1.349722755692907 1.370125298366056 1.3905267787861606 1.4109273491740364
1.4313271276011115 1.4517262015087267 1.4721246301891866 1.492522446310365 1.512919656168516 1.5333162379721943 1.5537121369905147 1.5741072557633222 1.5945014367060704 1.6148944333051116 1.6352858646965014 1.6556751468884499 1.6760613926497316 1.6964432721576224 1.7168188299432074 1.7371852641371808 1.7575386967167899 1.7778740028940614 1.7981848215899197 1.8184639267765133
1.8387042414921304 1.858901226621281 1.8790588590519068 1.8992044874755574 1.9194310078861854 1.9399809399852321 1.961483879882282 1.9838250157054764 0.9736950356900904 0.9935039369825421 1.01332768988944 1.0333479204749427 1.0536787133475014 1.0741817685670794 1.0946880074593786 1.1151594691384585 1.1356015585890218 1.15602386670145 1.1764339052539734 1.1968366234729038
1.2172350432952883 1.237630931252099 1.2580252951063333 1.2784187073854139 1.2988115012978387 1.3192038828817019 1.3395959919165248 1.3599879331806275 1.3803797914197002 1.400771637880329 1.4211635328097687 1.4415555262643571 1.4619476583823943 1.4823399595964168 1.5027324508376072 1.5231251434544333 1.5435180382088445 1.5639111222306823 1.5843043621162205 1.6046976903581316
1.625090980896342 1.6454840077066397 1.6658763780202337 1.6862674293113487 1.7066560776225108 1.7270406065489678 1.7474183960112433 1.7677856143861213 1.7881369372199263 1.8084653756407054 1.8287621662756919 1.8490161531329725 1.869211077839995 1.8893172659084498 1.9092662516399463 1.9288937571483948 1.947728983114989 1.9650288366523883 1.9815299305206067 0.9558911053873099
0.9860394373212434 1.0052199714605392 1.0247251509782218 1.0445771771830699 1.0647072093119272 1.0850033426630252 1.1053594483017724 1.1257308036348892 1.1461042661564436 1.166477027881913 1.1868492733102403 1.2072217276722537 1.2275949635975691 1.2479692953507202 1.2683448381554387 1.2887215896537942 1.3090994929216113 1.3294784758272307 1.3498584718077318 1.3702394285322785
1.3906213096519513 1.4110040931686356 1.4313877685977598 1.4517723341685833 1.4721577947253355 1.4925441606432868 1.5129314478416491 1.5333196787607535 1.553708883885413 1.574099102951151 1.5944903842635858 1.6148827794615406 1.6352763293825334 1.6556710342202734 1.6760667976896335 1.6964633304772605 1.7168599937879203 1.737255562620773 1.7576478994475124 1.7780335710245438
1.7984075394553904 1.8187632015740365 1.8390930627347053 1.8593898646525737 1.879647473011148 1.8998612614000439 1.9200165069888715 1.9400781695670433 1.9596211658876943 1.9787415063246767 0.9497440715708266 0.9705418108760411 0.9942833993390912 1.0149066747739572 1.0350535601338804 1.055164020168487 1.0753457791351408 1.0956002966836305 1.1158966675059432 1.1362146448276673
1.1565446946101843 1.1768825315529519 1.1972261878377914 1.2175746395150981 1.2379272279175204 1.258283441269433 1.2786428444610134 1.29900506229103 1.3193697774449396 1.3397367294333564 1.3601057109961305 1.3804765621711477 1.4008491631808822 1.4212234272516224 1.4415992941914693 1.4619767252894988 1.482355699930823 1.5027362142365246 1.5231182819866318 1.5435019380068953
1.5638872440252873 1.5842742966439807 1.6046632364060225 1.6250542557731058 1.6454476018646136 1.6658435665594444 1.6862424513684011 1.706644486679583 1.7270496746854156 1.7474575159261867 1.7678665852327515 1.788273986160394 1.8086749248777194 1.829063108069286 1.8494332604886037 1.8697874421618321 1.890149801044445 1.910608359102552 1.9313931255360113 1.9531250795727046
1.9759330391555614 0.9429754001671293 0.9625911552736595 0.9825200109887822 1.0044111255530574 1.0251145530353383 1.045409921321579 1.0656114128576135 1.08582157275569 1.1060640059583302 1.1263338178288864 1.146623344708188 1.1669271754048571 1.1872418478595097 1.2075651305208377 1.2278955008685348 1.2482318452897567 1.2685733023537684 1.2889191837432579 1.3092689329775018
1.3296221010284643 1.349978329017447 1.3703373339204536 1.3906988958913287 1.4110628469250897 1.431429060982092 1.451797445819858 1.4721679368413871 1.4925404933472084 1.512915097686815 1.5332917579204741 1.5536705146791865 1.5740514528841505 1.5944347187664258 1.6148205420664792 1.6352092621274712 1.6556013543338204 1.6759974490988123 1.696398327845227 1.7168048667239773
1.7372178758099277 1.7576377459131287 1.778063771604939 1.7984930045888292 1.8189186106364281 1.839328005821937 1.8597005780061293 1.8800000400092538 1.9001479202832299 1.9199638725843111 1.9389555526280924 1.9564012781414004 1.9731683512978966 0.9356013456422765 0.954511532983264 0.9741753391925074 0.9941424758605124 1.014981225970848 1.0354710997370509 1.055755241679503
1.0759768706753676 1.0961975917930957 1.1164365656608428 1.1366951578839666 1.1569704820022835 1.1772594625330546 1.197559607251447 1.217869012835483 1.2381862230675442 1.2585101011758189 1.2788397419584419 1.2991744155660405 1.319513531051382 1.339856611025702 1.360203272327388 1.3805532100742106 1.4009061838961474 1.4212620058918803 1.4416205302358016 1.461981644595021
1.482345263717646 1.5027113257800684 1.523079792344448 1.543450653059445 1.5638239364957527 1.5841997286813443 1.6045782008984466 1.624959647965541 1.6453445372263915 1.6657335661390524 1.6861277214118955 1.706528322697463 1.7269370148019143 1.7473556375648178 1.767785842528778 1.7882282418233555 1.8086808440338455 1.8291368825132877 1.8495835149448974 1.8700042588182577
1.890381439588338 1.9106832217200944 1.9308538715048038 1.950454497064408 1.9698360006693276 0.945554616639443 0.9655019529290411 0.9852401648249748 1.005144519989928 1.0254900947836627 1.0457989434864943 1.0660455069269272 1.086270545337231 1.1064993480727905 1.12674142908501 1.1469981243324003 1.167268173363268 1.187549837905935 1.2078415027454164 1.2281418024246478
1.2484496090684623 1.268763992045673 1.2890841808921496 1.3094095369284695 1.329739531939939 1.350073731366626 1.3704117801208824 1.3907533899467326 1.411098327809497 1.4314464051660107 1.4517974682119876 1.4721513894251852 1.4925080609845334 1.512867390979658 1.5332293037374478 1.553593746061724 1.5739607016672237 1.594330216533482 1.614702438231202 1.6350776723360683
1.65545645848013 1.6758396665800326 1.696228608641366 1.7166251500144383 1.7370317800506163 1.7574515549722742 1.7778877340552284 1.7983427800922684 1.8188163161660325 1.8393024624761807 1.8597913435554339 1.8802886327704176 1.900863686772224 1.9217305334623258 1.9435214527543667 1.9665137879860282 0.9274617739286408 0.956899659683445 0.9761163173066004 0.995657631161368
1.0155622160001336 1.0357639774738343 1.0560157645817227 1.0762608389404522 1.096501017974107 1.1167445205404014 1.1369960073786527 1.1572569074868353 1.1775271731369423 1.1978062221506849 1.2180933206328153 1.2383877311105573 1.2586887660912855 1.2789958054027362 1.2993083001178864 1.3196257713352648 1.3399478065618513 1.3602740545538852 1.3806042189253118 1.4009380507250588
1.421275340194007 1.4416159079617141 1.4619595960412533 1.4823062591627898 1.5026557572867396 1.5230079505768435 1.5433626986932367 1.5637198669630943 1.5840793427621724 1.604441066254449 1.6248050804559089 1.6451716063198583 1.6655411487993879 1.6859146385752608 1.7062936089424976 1.7266803930405543 1.7470782919440664 1.7674915829512816 1.787925029641767 1.8083820348890751
1.8288594807358667 1.8493361319532076 1.8697546722617353 1.890007073978956 1.9098883388591943 1.9288992988309235 1.9463350195759865 1.9632610511944872 0.9197779498110824 0.9407992883180628 0.964127655760505 0.9849150207479949 1.0052472295541088 1.025524821590408 1.045839662018774 1.0661416685994614 1.0864221737987059 1.106689448584279 1.1269522283642532 1.1472160661784665
1.1674838378125518 1.1877568744654923 1.2080356922016957 1.2283203798040203 1.2486108034557881 1.2689067175819428 1.2892078272877998 1.309513824753705 1.3298244106252546 1.3501393060259008 1.3704582582270415 1.3907810417322473 1.411107455865505 1.4314373195915069 1.4517704641213052 1.472106723839928 1.492445926244651 1.5127878819283598 1.533132376203231 1.553479164739914
1.573827976576842 1.5941785290049524 1.6145305601623172 1.6348838867702493 1.6552384964129387 1.6755946858676936 1.6959532582250887 1.7163157895021393 1.7366849653057155 1.7570649606822852 1.7774617727311885 1.7978832141084478 1.8183376301049428 1.8388286584112996 1.8593409516701924 1.879820315886633 1.9001919069643787 1.9203690186335123 1.9398707502687602 1.9593640529471594
0.9116084474309 0.9318144754511318 0.9517526141345014 0.9736126872353651 0.994568913879511 1.0151250074634783 1.0355479024217282 1.055926000143183 1.0762648335563765 1.0965729957113532 1.116861730437357 1.137140230223221 1.157414659334679 1.1776887851578075 1.1979648271240544 1.2182440572373412 1.238527168825803 1.2588144994780475 1.2791061679604285 1.299402160385352
1.3197023855473768 1.3400067106798534 1.3603149841268973 1.380627048789546 1.400942748696832 1.4212619301533185 1.4415844383701584 1.4619101101864564 1.482238763400733 1.5025701833717906 1.5229041079485126 1.5432402124838533 1.563578097694932 1.5839172844372775 1.6042572210633848 1.6245973110432042 1.644936971298299 1.6652757358068326 1.6856134245788343 1.7059504042248348
1.7262879708209218 1.7466288853245273 1.7669780862819582 1.787343615918779 1.8077377457142532 1.8281778061103047 1.8486840824125776 1.8692681756844542 1.8899287189496592 1.910817334616314 1.932554745954318 1.955504095865141 0.9030698251629662 0.9230233180555147 0.9427652969696839 0.9628116074815442 0.9838379435795482 1.0046285019749914 1.0251976747136264 1.0456542437037282
1.0660519290947472 1.0864061819689306 1.1067286554065816 1.1270299488381212 1.1473183978053458 1.167599893996369 1.187878375976391 1.2081564171107264 1.2284356769353826 1.2487172075663058 1.2690016563951076 1.289289400709241 1.3095806382418707 1.3298754487230324 1.350173835743878 1.370475754708339 1.390781130471923 1.4110898668940546 1.431401849633149 1.4517169429222765
1.4720349807050666 1.492355752377752 1.5126789835077277 1.5330043123397814 1.55333126371619 1.5736592232560034 1.5939874162541638 1.6143148977993156 1.6346405633611274 1.654963193460552 1.6752815534904595 1.695594580746629 1.715901703331253 1.7362033432916422 1.7565016453114903 1.7768014240272643 1.7971112655094046 1.8174443645302658 1.837816719715532 1.8582309137967514
1.87860078377756 1.8985634191324583 1.9175087928039427 1.9347701604930605 1.9517297615379108 0.894176192943037 0.9140291672338302 0.9337269473122403 0.9535258536601826 0.9736552341933448 0.9942693504940234 1.014871482645512 1.0353811364427103 1.0558205409613726 1.0762119084776098 1.096566065665099 1.1168921031904993 1.1371982632297661 1.1574912764374083 1.1777762021603115
1.198056671233953 1.2183352320462977 1.238613650450861 1.2588931352068238 1.2791745002248138 1.2994582801733081 1.3197448129501794 1.3400342985885776 1.3603268410486011 1.3806224771429687 1.4009211953189655 1.4212229459409067 1.4415276439310805 1.4618351640477878 1.4821453286801505 1.5024578878430215 1.5227724911248763 1.5430886517653104 1.56340570389897 1.5837227553284814
1.6040386399390691 1.6243518760747806 1.6446606404818704 1.6649627739085464 1.685255848160681 1.7055373478690066 1.7258050524431232 1.7460577358884715 1.7662963144171295 1.7865255579208312 1.8067567229066563 1.8270119598810488 1.8473314798491374 1.8677763930620568 1.88835264428164 1.9086219055438451 1.9277741557040131 1.947222423092016 0.8849324134585965 0.9047632980485433
0.9244786107257947 0.9442106524083336 0.9641204544686303 0.9842806574330832 1.0047018153808984 1.025170601301141 1.0456133625112183 1.0660197386012245 1.086393425689844 1.106738892580682 1.127061579310122 1.1473671139321213 1.1676604946711768 1.1879457624390424 1.2082260176378092 1.2285035725818196 1.2487801219328807 1.2690568903018173 1.2893347496599283 1.3096143097103645
1.3298959864619826 1.3501800537293491 1.3704666811801078 1.3907559614745741 1.4110479281212895 1.4313425648959135 1.4516398070052032 1.471939533604593 1.492241550809296 1.5125455640260859 1.5328511383679013 1.5531576462120356 1.5734642017113534 1.5937695832287206 1.6140721460099838 1.6343697287622503 1.6546595601191594 1.6749381786638438 1.6952014032407665 1.7154444371505901
1.7356622654104006 1.7558505983888144 1.7760076860588803 1.7961373469540094 1.8162543936186542 1.836395851228772 1.8566472054506193 1.8772030937738378 1.8984248401479495 1.9202437372136048 1.9427739311215642 0.8753393264277773 0.8951928702125123 0.914963782114227 0.9347184653060511 0.9545614158277632 0.974565779494611 0.9947459603259509 1.0150805066388517 1.0354685958115168
1.055858397684332 1.0762321240060768 1.0965854491145313 1.116918595539483 1.137234120718274 1.157535515262204 1.1778262852769557 1.1981095111501985 1.218387717465385 1.2386628938305904 1.258936569741709 1.279209899178479 1.2994837381989217 1.3197587106692155 1.340035261813634 1.360313700709969 1.3805942330504237 1.4008769852013645 1.421162020123937 1.4414493451681596
1.4617389111626722 1.4820306016129032 1.5023242102293546 1.5226194045082426 1.5429156727963995 1.5632122523253957 1.5835080361405118 1.6038014574050072 1.6240903493741579 1.6443717771704716 1.664641833678937 1.6848953935256121 1.7051258471252728 1.725324909502614 1.745482731653268 1.7655887042073268 1.7856333397544557 1.8056109815563886 1.8255233456181765 1.845384139738316
1.8652259895883665 1.8851014626866824 1.9047577531949857 1.9213460266739633 1.9383916045547 0.8653956224441849 0.8853026151841222 0.9051590448739526 0.9249910831023246 0.9448579166634772 0.9648190023642892 0.9849025708801755 1.0051053010898052 1.025404122033684 1.0457468024056173 1.066099548643098 1.0864462412998652 1.1067804459348611 1.1271004245676073 1.1474069897192003
1.1677021625328308 1.1879883250758712 1.2082677654051277 1.2285424819666646 1.2488141303689861 1.2690840368600218 1.2893532380947978 1.3096225278532323 1.3298925021626486 1.3501635994045864 1.3704361342497586 1.3907103251278796 1.4109863151071387 1.4312641858589783 1.4515439639642078 1.4718256182413325 1.4921090460866744 1.5123940460600585 1.5326802732261888 1.552967173227781
1.5732538908955995 1.5935391493717053 1.6138210954959307 1.6340971042792216 1.6543635254138025 1.6746153345842996 1.6948456302106976 1.7150449339305878 1.7352003517253543 1.7552949105708373 1.7753078436798406 1.7952169333320318 1.8150029612888385 1.8346587272547226 1.854208919125237 1.8737595284159336 1.8936455922738182 1.913638083178844 1.9331457438979767 0.8550986918953632
0.8750855497873162 0.8950575952270229 0.9150093603720055 0.9349631433893322 0.9549577836360513 0.9750243231015165 0.9951737225857841 1.015400060353463 1.0356862359303773 1.0560036896303067 1.0763311923611607 1.0966566020613522 1.1169740045634409 1.1372811804612757 1.1575780991590354 1.1778658885337687 1.1981461536438764 1.2184205771918093 1.2386907163855074 1.2589579185060549
1.2792233006780995 1.2994877612550524 1.3197520049776517 1.340016572622723 1.3602818704694715 1.3805481972503681 1.4008157673282664 1.4210847291997466 1.4413551783491096 1.4616271631048259 1.481900681545159 1.5021756667049626 1.5224519564197245 1.5427292432538562 1.5630069993697637 1.583284371255466 1.6035600400323737 1.62383204338175 1.6440975502338395 1.6643525585302565