TITLE = "Written by meshio v4.3.8"
VARIABLES = "X", "Y"
ZONE NODES = 1723, ELEMENTS = 3275,
DATAPACKING = BLOCK, ZONETYPE = FETRIANGLE
0.0 2.0 6.123233995736766e-17 1.0 1.034257276914745 1.0728442557647029 1.1117017643770917 1.1513390954045326 1.1916571028935423 1.2324929091976988 1.273693436946723 1.315131776534521 1.3567122524466388 1.3983660203516688 1.4400437682188332 1.4817088122717403 1.5233314796583597 1.5648845621877774 1.6063392157300718 1.6476606677200287
1.6888031283703042 1.729703993393369 1.7702756710109104 1.8104032146544855 1.8499869619715228 1.8889322939297322 1.9273262577597634 1.9660054224486267 0.9993252142349167 1.0465293753655087 1.0883705148897813 1.1291791684080341 1.1700396486956264 1.2111828281006112 1.252577756400851 1.2941423630534605 1.3358054206783474 1.3775156948331937 1.419237452363591 1.4609448085324914
1.502617489142597 1.5442379124642147 1.5857890044232834 1.6272520825121746 1.6686039862214794 1.7098122944252114 1.750827219002434 1.7915718025879244 1.8319539975881682 1.871958015323091 1.9118716872793349 1.9530951896564432 1.9996277833929441 0.9969265032721611 1.0289301035079852 1.066537969148247 1.1067602065738136 1.1478660160496241 1.1894149743300486 1.231157552968795
1.2729686071912285 1.314793768781143 1.3566093456495218 1.3984031155885348 1.4401667731826076 1.481893269699543 1.5235760468873052 1.5652090590110888 1.606787147434999 1.6483063502797366 1.6897632421286508 1.731150784592391 1.7724444923446576 1.8135609888085795 1.854283128399972 1.8942750977231766 1.9329688745497546 1.9696160631123096 0.9934399682270793 1.0373715040380056
1.0811920373602428 1.1243120110541762 1.167013898681697 1.2094289044286932 1.2516370152012903 1.2936998928585441 1.3356606984890553 1.377546899473524 1.4193748189088498 1.4611535817103574 1.5028880980559207 1.5445814790355967 1.5862374297479302 1.6278631348374217 1.6694731126436877 1.7110945972247191 1.7527749061074307 1.7945876648878054 1.8365980830375215 1.8787385136115868
1.920739377224291 1.9611254901776642 1.998280394739647 0.9879933571389498 1.0226596729676707 1.0595772449661744 1.1016328945688927 1.1447908508120996 1.1877286120762027 1.2303064162528257 1.2726066623995027 1.314716163661235 1.356695996456143 1.3985853630338816 1.4404087805567682 1.4821816491286133 1.5239142449174057 1.565615006427891 1.607294057626795 1.6489679400412565
1.6906668068974742 1.7324467740517113 1.7744134869823207 1.8167713792881506 1.8598639191104576 1.904126730628022 1.9504886647730522 1.9962055717065632 0.9818771454397819 1.02941956108304 1.0767471811638314 1.1221384808594261 1.1660180584651754 1.2090470758475338 1.2515870003681717 1.2938318074886213 1.3358904577293416 1.3778269656643838 1.419680368859103 1.4614752443082268
1.5032276197834844 1.5449487285826293 1.5866481254394027 1.62833737306229 1.6700353585429966 1.7117761335972412 1.7536206714044078 1.795673458693856 1.8381111257505514 1.880965791835692 1.9227857790313876 1.959943481607891 1.9935983771585173 0.9737700966144465 1.0147407943933162 1.0574523017587256 1.1014897088845257 1.145155635479094 1.1882181942097765 1.2308191788110348
1.2731090642182914 1.3151939448523893 1.3571427429600829 1.3989998903946959 1.4407944610887375 1.4825457889411529 1.5242667794904994 1.5659660290974933 1.6076498405366244 1.6493253890288013 1.6910063124150037 1.7327215525355533 1.7745300966280855 1.8165485578997147 1.8590834004328447 1.9025986244744553 1.9461923314521343 1.9898208556055013 0.9637417452863364 1.002483594855537
1.0426951069057593 1.0839117590296197 1.1259624864677276 1.1682855793371432 1.2105599493234005 1.252695252982918 1.294696277540252 1.336591340951791 1.3784086242360272 1.4201708866795981 1.461895329723634 1.503594247658075 1.5452752575942827 1.586940994156182 1.628588772103248 1.6702111584781711 1.711797647451121 1.7533334847514455 1.7947887220204841 1.8360766818968806
1.8771880369068374 1.9176093568422587 1.9524805794775721 1.9857010478814177 0.9881265386903294 1.0282872557136589 1.0682339435891524 1.1085752725105416 1.1495980849372507 1.1910764243557574 1.2327604982196156 1.2745034245807199 1.3162413818720993 1.3579541089105929 1.3996401597287618 1.4413050413880182 1.4829558272584786 1.5245981928584198 1.5662337993592 1.6078571017258885
1.6494516884289163 1.6909874714563249 1.7324199997411673 1.7736884891038913 1.8147220675633364 1.8554628542364497 1.8966841811749262 1.939801297078911 1.980176558552775 0.9514518657774192 1.0135360948154022 1.0521861602139944 1.091466468679874 1.13150465557916 1.1721792655869558 1.21328698530571 1.2546456143623743 1.2961304752381124 1.3376709129047073 1.3792325383682127
1.4208015880704399 1.4623748995769776 1.5039538577833214 1.5455400117037745 1.587130454689879 1.6287115476447405 1.670250504179059 1.7116858971352038 1.7529158335102462 1.7937590105274384 1.8338646220438748 1.8724325494742253 1.9096412177017228 1.9742806021448356 0.9387938665103284 0.9815873955518536 1.0298341014842536 1.0715336880568909 1.1122784111060842 1.152981413219565
1.1938676679573248 1.2349559185304788 1.2762003408050278 1.3175471653321509 1.3589555703336091 1.400400683957767 1.4418702683112548 1.4833605068091975 1.524872259602525 1.5664073422129667 1.607963718531926 1.6495287084881967 1.6910718914308507 1.7325471285964702 1.773920153013661 1.8151881556333098 1.8563485600679572 1.8964002320186506 1.9383814900995886 1.9670250562418534
0.924375847863967 0.9652037617242039 1.0056216037339762 1.0499560911466685 1.092008882168983 1.1332120732637017 1.174212318398298 1.2152317621240885 1.2563351744832607 1.2975260887725055 1.338787482120123 1.3801004643020836 1.4214514433266978 1.4628336732705896 1.5042465533805751 1.545694034736638 1.587182107242879 1.6287143999651796 1.6702850119265078 1.7118731400992098
1.7534673251505726 1.7951945486870673 1.837558139743134 1.8819375143563082 1.926081840217436 1.9594535735083456 0.908437612419743 0.9486867061034383 0.9885228312041031 1.0289297621366458 1.0713082976026451 1.113024993798397 1.1542801562548055 1.195370376333894 1.2364379591812862 1.2775387800294633 1.3186878406965852 1.3598828447019686 1.4011167502286734 1.4423840445310774
1.4836834831099224 1.5250189780962893 1.5663992588546896 1.6078355304239362 1.6493337757337863 1.6908733415989525 1.7323588034064719 1.7735509358883221 1.8140510877744507 1.8530363454077128 1.8885816264640696 1.9215600963626724 0.891021056730634 0.9310847142763793 0.9708341691852429 1.0107604793268823 1.0513213178524272 1.0928189442568832 1.1341960210431814 1.175379297612944
1.216469001143476 1.2575363784901779 1.298616389277956 1.3397219495235264 1.3808550996318243 1.4220143641746255 1.4631993563093 1.5044136614898602 1.5456668148591817 1.5869757161954778 1.6283646999843742 1.6698602001152616 1.7114666397582339 1.75309329020133 1.7944302582289258 1.8350696217835833 1.8742127838510105 1.9138458287836015 1.950779607679802 0.8721539861496866
0.9122592112868986 0.9521622983093663 0.9920807059586595 1.032312355494689 1.0729979421061917 1.114149580473289 1.1553264083869563 1.1964356694194198 1.2374987491769118 1.2785452738373575 1.3195933220600475 1.360650796996691 1.4017199152849953 1.4428013815344458 1.4838978342567877 1.5250169009726862 1.5661744845314132 1.6073990419257411 1.6487374323584891 1.6902608114796263
1.7320576644143315 1.7741598552988074 1.8163281520579424 1.8584342415864326 1.900451841590879 1.9409420986087402 0.8518551003034699 0.8921515927908387 0.93238744850446 0.9725834774141923 1.0128855123354465 1.0534248556733963 1.094235701580674 1.1352798088089553 1.1763643492829359 1.2174253229805168 1.258460085005157 1.2994785142077694 1.3404880957815557 1.381492014959319
1.4224908990025442 1.4634854347221975 1.504479239778419 1.5454821859075494 1.586514917302787 1.6276160079975122 1.6688543378548568 1.7103501853470793 1.7523006421843652 1.7949390545751507 1.8381851354983672 1.8838946378116292 1.930728675899929 0.8301377008878144 0.8707499467329874 0.9114994903913309 0.952198950333728 0.9928439267840089 1.0335261407508312 1.0743199482073098
1.1152441075010897 1.156272707565513 1.1973217062543091 1.2383547060301585 1.2793646182312337 1.3203525840885326 1.361319428433688 1.4022639232863938 1.443183701152379 1.4840771713854572 1.5249459785385484 1.5657981113794714 1.6066521369659525 1.6475433115045242 1.688532096076135 1.7297111247777086 1.7711681881681973 1.8125771455757294 1.8514888644955683 1.8859520283640947
1.9205207471071013 0.807014248989718 0.8480776272104719 0.8895808594833964 0.9310027030938604 0.9721945247503926 1.0132170468323283 1.0541759354772058 1.0951444204320824 1.136150780296077 1.1771891549418834 1.218225709637385 1.259241750609765 1.3002303299494729 1.341187825937154 1.382109798460133 1.4229901227525048 1.46382174881935 1.5045982571167145 1.5453159939694876
1.5859770109357036 1.626593540705575 1.6671957783706972 1.7078476481549993 1.7486838168054932 1.7899880873056322 1.8318878705525992 1.8692593487976574 1.907950406287968 0.7825021108093325 0.8242092035975609 0.8668363837793027 0.9092035758116225 0.9510765638900625 0.9925539047472921 1.033787374086838 1.0748995593716248 1.115965504656579 1.1570196989359816 1.1980686662974163
1.2391009546619012 1.2801067481431287 1.321078745846101 1.3620092435098485 1.4028884591225843 1.44370432843746 1.4844431673208398 1.5250908272359953 1.5656343561859245 1.6060647236580279 1.646382307888049 1.6866098728451513 1.726827041566072 1.7672750323722157 1.808767333304722 1.8533821804435278 1.8951705781129005 0.7566308173012731 0.7993099091812061 0.8436600877152463
0.8871521390893451 0.9297331312262006 0.9716803451712551 1.0132219133809999 1.054522933798978 1.0956941240390794 1.1368013639132852 1.1778776040020094 1.2189336908961141 1.2599667678398032 1.300970011013638 1.3419343014991107 1.3828475483369256 1.4236942401788957 1.464455540628014 1.5051096035657354 1.5456317188926536 1.5859938567269352 1.6261629028661126 1.6660960986090483
1.705730555427037 1.7449618098223156 1.7836154098796884 1.8215125125964833 1.8818930768149773 0.7297881229832655 0.7741846778722438 0.8207379862927114 0.8653657864426836 0.9085218578356008 0.9508254235227833 0.9926136827732946 1.0340837094894044 1.075363220170369 1.1165352116439489 1.1576498777261328 1.1987337685924635 1.2397969819987382 1.28083856990973 1.3218514128163714
1.3628236128871931 1.403738726719763 1.4445760646795793 1.4853112213265631 1.5259166754043336 1.5663623623002767 1.6066163855977347 1.6466466517485965 1.6864260088317349 1.7259494466227292 1.7652941292913702 1.8048376699998383 1.8455034380282824 0.6980598529730987 0.7355263675972067 0.7710943476025358 0.8074979730004985 0.8474671141170893 0.8888811877123651 0.930615421050142
0.9722607883525253 1.0137306978432212 1.0550464732168738 1.096254240542247 1.1373960869962623 1.1785020079981838 1.2195895691034904 1.260665638100155 1.3017282893053783 1.3427687026504054 1.383772050841853 1.4247182596745303 1.4655830839319093 1.5063395017781473 1.546959431303851 1.5874160773047978 1.627687769618124 1.667765220061874 1.7076666949565737 1.7474725428823954
1.7873985111772173 1.8276922890268636 1.8661987092468022 0.6659654259736913 0.7067360921851498 0.7479991834953535 0.7900732180821657 0.8299467807991068 0.8702812998386272 0.911164650675202 0.9523415646270261 0.9935967376107286 1.0348275899687218 1.076006928802681 1.1171417980617537 1.1582493327558785 1.1993457215454073 1.2404419590165534 1.2815422196151844 1.3226432075307413
1.3637342667590047 1.4047980118599297 1.445811717360489 1.4867493900265072 1.5275843550429593 1.5682924615877496 1.6088564742071543 1.6492727829682805 1.6895623526125685 1.7297885092980265 1.77007411112835 1.8104853797415752 1.8501808191190978 0.6307099237775651 0.6650977794438993 0.698318930398631 0.733693265564641 0.7719965646411725 0.8119995070700289 0.8518668526959801
0.8921421002449453 0.932805527903734 0.9737212167639534 1.0147580426827565 1.0558347365105036 1.0969159922818188 1.1379945573008834 1.179076176465874 1.2201704276163488 1.2612855170419788 1.3024247828616582 1.343584262947017 1.3847517482478229 1.4259075522440865 1.4670268235113348 1.508082850089717 1.549050985541913 1.5899133567239947 1.6306649859602662 1.6713219962817079
1.7119309739924682 1.7525675498292912 1.7932535780423935 1.8336203362427501 0.5675826894968443 0.5980052636104637 0.6340960726555099 0.6725501869539452 0.7124804549901518 0.7520734921452278 0.7921119826216654 0.8324708729783836 0.8727706594644328 0.9132527507921905 0.9539420473406742 0.9947904750069347 1.0357357590010627 1.0767315130347588 1.117753883328073 1.1587967204051666
1.1998645118714633 1.2409665368625513 1.2821121413232763 1.323306069776195 1.3645445829482756 1.4058139047686524 1.4470916110790417 1.4883502842837684 1.5295623047125368 1.570705194104062 1.6117676554528229 1.6527564203433613 1.693701844107508 1.7346515498487236 1.775615196245378 1.816413096014563 0.4995203035782945 0.532157117144579 0.5678936228939546 0.6055798894847995
0.6468235711626635 0.6884862435002017 0.7301875039277571 0.7711876048945593 0.8119980034572142 0.8527303344537713 0.8933626398375181 0.9340407597087563 0.9748085388990632 1.0156607814086744 1.0565752841772404 1.097532089882795 1.1385212069930342 1.1795431093620845 1.2206063034624668 1.2617240428049958 1.3029101393938671 1.3441727622528625 1.3855088156571636 1.426902063701139
1.4683257743527098 1.5097482852168265 1.5511395811325264 1.5924780773013831 1.6337573966622885 1.674991132579736 1.716207171189121 1.7574114067410014 1.7985103690884572 0.42006619100311793 0.4606123737891896 0.5007479739947507 0.5405546540856898 0.586227831904521 0.6249654852780466 0.6660652432333478 0.7078840856409946 0.7497023673922648 0.791060789708366 0.8321555091882225
0.8730886649807197 0.9139116123427451 0.9547177123147867 0.9955494982885917 1.0364184446054512 1.0773223983188047 1.1182575453523294 1.159224766421406 1.200231936949603 1.2412938421359263 1.28243049993653 1.3236631231148923 1.3650049496216792 1.4064530009173437 1.4479862682239033 1.489570589718043 1.5311668925612496 1.5727399153027877 1.6142663838959335 1.6557412096415043
1.6971754485476747 1.7385732642374412 1.779886370238544 0.345385324649259 0.38474503749276867 0.44912647896555974 0.48492700174359404 0.5264287217930924 0.5654880110903304 0.6064825851977768 0.6460613499507106 0.6869349013895911 0.728432439567372 0.7700275127866089 0.8113951719229393 0.8525608697267786 0.8935775533734309 0.9344935435067666 0.9753684176543808 1.0162366842430686
1.0571144504109073 1.0980086398673266 1.1389244063317885 1.179870110283423 1.2208603315021975 1.2619171048433822 1.3030693924462602 1.34434905406192 1.385775665160618 1.4273442761101982 1.4690246403532692 1.5107699178116576 1.5525286581019713 1.594256367707284 1.6359254550720606 1.6775293364948634 1.7190701386129057 1.760527183690701 0.2588718274177332 0.3007630074983382
0.3345876412275143 0.378063026412655 0.4188507775767478 0.46210387932986574 0.5053113323512165 0.5467548069123452 0.586637333214145 0.6269772840176352 0.6671789169237594 0.7080566842266481 0.7493344834549935 0.7907161426603522 0.8319960398061077 0.8731432585060646 0.9141755730308989 0.9551238068291867 0.9960247436661465 1.0369038395346424 1.0777765935465666 1.1186531816539735
1.1595431372322265 1.2004595251937151 1.2414226890740396 1.2824624809341802 1.3236189790201331 1.36493933326316 1.4064501048743552 1.44813954454787 1.489960387625808 1.5318449870005473 1.5737229190678637 1.6155377533002668 1.6572607224649816 1.6988900852457445 1.7404255509210296 0.034238964111678226 0.06793781382230503 0.10320875906987377 0.1398385293734978 0.17754123093249
0.21555339989366584 0.2441180188870651 0.28799791806994984 0.3245450640502446 0.3647896105587667 0.40461440324769143 0.4429060842695089 0.4848404512276951 0.5265940236260195 0.5674113557872786 0.6075356672161735 0.6478658385552288 0.6883538534479927 0.7292294759302875 0.7703586564656922 0.811574567591074 0.8527500503426418 0.8938439291676521 0.9348551974550047 0.9757992634984869
1.0166973840376048 1.0575668229088977 1.098420238160775 1.1392677620088238 1.1801201122110925 1.2209926909503337 1.2619107563514027 1.3029124344350156 1.3440512701293739 1.3853976626377156 1.4269840841392156 1.4687820841097041 1.5107145316924562 1.5526815441464494 1.5945885366405745 1.6363750758140547 1.6780317033999632 1.719577403425599 0.0 0.03713571750643332
0.07683241304382725 0.1174251240273809 0.15803940238774494 0.19840014234481657 0.23186314405862576 0.27057827880529844 0.30743008358746143 0.348367123898739 0.38798811696584756 0.4266833388812065 0.46616670019087203 0.5069710665684855 0.547805090068181 0.5882623029101072 0.6285085009389155 0.6689255819107328 0.7095364146553619 0.7503927439944116 0.7914166079209326 0.8325088372858492
0.8735890385317194 0.9146201892784357 0.955593029095041 0.9965125818690288 1.037389594270012 1.0782343783306534 1.1190557569433797 1.1598615422186431 1.2006607839980585 1.2414687089596161 1.282314866724181 1.3232458985410689 1.3643307888359388 1.405678526217549 1.4473212103897901 1.4891942922210557 1.5311706236919493 1.5731057251992977 1.6148906555465072 1.6565005491117153
1.697978766959768 0.0 0.04801347876219184 0.09188153663084095 0.13327762011698593 0.17290118263585652 0.20939057770585875 0.2502923230125599 0.2888008725328867 0.328955885664805 0.36944260814409563 0.4088343070425152 0.4482209716173931 0.48808194283331563 0.5284529569233011 0.5688768759450925 0.6092050715680261 0.6495383791077407 0.6900303329122888 0.7306929540110567
0.7715241138618388 0.8124716443357005 0.8534723613051661 0.89447314018473 0.9354438812344924 0.9763726004265536 1.0172581400706007 1.0581040481335808 1.0989146057566743 1.1396941914097827 1.1804460389561093 1.221173956184274 1.261889519199512 1.3026266354624743 1.3434399103789014 1.3844129364461963 1.4257254609163514 1.4673875314605185 1.5092614749169089 1.5511414466542432
1.5928422257516934 1.6343077206968804 1.675622254573038 0.0 0.03301973989460736 0.07108980708334992 0.11115648864320427 0.15081769400634853 0.1891621827025376 0.22856245356669647 0.268814594475602 0.30903974452413785 0.34954519036281034 0.38973284576478223 0.4294789543807054 0.46927661057382936 0.5093017338603845 0.5495402568060024 0.5898392214901139 0.6301645489458689
0.670572292010675 0.7111203608643718 0.751807320543923 0.7926162342403645 0.8335091061856875 0.8744428587358448 0.9153805769123062 0.9562985160754489 0.997184708264882 1.0380347382105057 1.0788469154559617 1.1196197452264547 1.1603527069014614 1.2010413406345564 1.24167840543119 1.2822659873959128 1.322844856364722 1.3634745633530336 1.4042421247626513 1.445469709048768
1.4870785384105072 1.5287884550571955 1.570292657763611 1.6114698725207113 1.6524923157544291 0.0 0.04413413559006223 0.08727978331606152 0.12851480825767586 0.16835992779366557 0.20801960007515846 0.2480642537202414 0.2887227764318147 0.3293235647905261 0.36979957790307866 0.41002166510877963 0.450030768068727 0.49005945401078266 0.5301916455531218 0.5704289993207593
0.6107328574405341 0.6511071323405766 0.691580844925168 0.7321732224714101 0.7728759876250288 0.8136697142778962 0.8545251983719739 0.8954112299631641 0.9363010090961591 0.9771762392901391 1.018026661824545 1.0588468488845957 1.0996307763301238 1.1403705709509293 1.1810612702658927 1.2216857414583033 1.2622148845606378 1.3026301689096451 1.342989842816662 1.3833477102642926
1.42375087578796 1.4648290076746544 1.5062124062723674 1.5473631353107777 1.5880105915008413 1.628557864815115 0.0 0.03261198677041972 0.06913778882276293 0.10836607808919896 0.1480835888317782 0.18784095269584827 0.22782015103129977 0.26824310260760137 0.30895882339892017 0.3495841155452905 0.3900619769432854 0.43036019552773896 0.47053727949712926 0.5107114761784901
0.5509356130279934 0.5912259022206705 0.6315838079007094 0.6720216705051268 0.7125538938913738 0.7531844145248251 0.7939024298345264 0.8346893897194042 0.8755216850671698 0.916375440857921 0.9572307712646083 0.9980746988119121 1.0389006307638795 1.0797047392126302 1.1204766516446645 1.161200468369531 1.2018716093148434 1.2424522688778674 1.2828701079645373 1.3230626921899555
1.363142632132759 1.4031211608955947 1.4428647445424168 1.4836871192151417 1.5243086614929464 1.5639627483325422 1.6037591654177898 0.0 0.04343969693623618 0.08584792654605239 0.12688541724691768 0.16730720747154612 0.20754957416315767 0.2479420139376658 0.2885560196231896 0.32926139851009356 0.36988132178084476 0.4103755350532872 0.45074332194614203 0.49103284245911605
0.531312103870255 0.5716207696332316 0.6119806825125845 0.6524050144572567 0.6929058819238401 0.7334904695208728 0.774156764181043 0.8148931046490026 0.8556819181100966 0.8965027879548503 0.9373365305002044 0.9781688206159764 1.0189932998495783 1.0598104625594966 1.1006226539434751 1.1414137083036155 1.182156270468876 1.22286683804338 1.2634758808169149 1.303825772214314
1.3437583060416893 1.3835683243718322 1.4230885974820437 1.461514790081352 1.5016504501196353 1.5393562847026494 1.577979457039071 0.0 0.03217465236231249 0.06860178251650638 0.10755384757914455 0.14736894408511075 0.1874783999965547 0.22778712413025443 0.2682960274605054 0.30894262255706567 0.34962017034926773 0.39022974190156157 0.4307431044925621 0.47116742052198707
0.5115384288721578 0.551900193492125 0.5922844161097623 0.6327129910833174 0.6732011901590991 0.7137597112866653 0.7543926001947387 0.7950953306499433 0.8358552462295591 0.8766543385536625 0.9174731158294704 0.9582954450009864 0.9991125239756753 1.0399280427656075 1.0807556597654642 1.121613006363273 1.162472131213635 1.2032843661421246 1.2441571469883355 1.284981882994809
1.3254440018584048 1.3651747208846143 1.405164590161768 1.4445520898767414 1.479621265629248 1.513847627996545 1.5509654988086605 0.0 0.04318126495079704 0.08552021968193725 0.12652868995473784 0.1670837917441755 0.2075451639878069 0.2480635552972912 0.2886756682230174 0.32934645456639117 0.37001312629056343 0.4106220273332331 0.4511572367213065 0.49162827363212414
0.5320620718857016 0.572490164918138 0.6129385309707858 0.6534273310129189 0.6939718200581312 0.7345824503446384 0.7752623993260646 0.8160053373000841 0.8567960773102073 0.8976134895888307 0.9384362770407979 0.9792502273387329 1.0200528955816572 1.0608646061274427 1.1017215928208466 1.1426749974950314 1.1836626347258206 1.2245739692874342 1.2658057389481943 1.3072213996395856
1.3482704819533395 1.3881252538819353 1.430765041930957 1.477931686017105 1.5221591197600386 0.0 0.03198126125227825 0.06837368010805668 0.10735984173778548 0.14724353809555127 0.1874826185344263 0.2279098099571123 0.26846518547325654 0.3091051006112487 0.34977999171036245 0.39044124012667997 0.43105478712990464 0.4716113953330739 0.5121204011304681 0.5526027665694496
0.593082787951486 0.6335823773176723 0.6741202742410772 0.7147125035668155 0.7553714583630597 0.7961009293209881 0.8368917703659335 0.877723195452918 0.9185664122222903 0.959394300523813 1.0001938208896288 1.0409699085644348 1.0817715121991875 1.1226688369278004 1.1637851613364623 1.204952440502792 1.2458355450055731 1.2875945845753674 1.3299555271009784 1.3717892677878516
1.409478627520584 1.4540590451222062 1.495649169165531 0.0 0.043032456132152196 0.08539309815518548 0.12646090112070543 0.16709744119821404 0.20764832223146823 0.24823005546437615 0.2888675953260565 0.3295458702264879 0.3702335246585311 0.4108989030704064 0.4515214304503757 0.4920971194052864 0.5326352908431512 0.5731533676209126 0.6136713961833538 0.6542086319639238
0.6947835157364228 0.7354151021335822 0.7761213099960326 0.8169079245052577 0.8577600489813073 0.8986461920286131 0.9395221117322288 0.9803482092172338 1.0211132102337408 1.0618294160957573 1.1025985709684198 1.1435312971567069 1.1849230936877326 1.2263318348936907 1.2667123782875522 1.3092221924236351 1.3534121405744022 1.3959687949081891 1.4306065225082065 1.4679123772019722
0.0 0.03189148598988135 0.06824323208014693 0.10726715325612886 0.14722391630243603 0.18754288193785734 0.22804042794442975 0.2686451200546416 0.30931532925444377 0.3500157679096868 0.3907142047345034 0.43138539963194344 0.4720157351831354 0.5126047360112103 0.553162125525643 0.5937033549378113 0.634245678885371 0.6748063351935837 0.7154046910183892 0.7560667798719032
0.7968227136032164 0.8376819235001111 0.8786175157014213 0.91957976928416 0.9604951837280036 1.0012995925918424 1.041989728446082 1.0825800626777142 1.123278499256251 1.1642022563693153 1.206093718332496 1.2478893344976651 1.2864523953834546 1.3306272938115051 1.372195814788698 1.4115025604941474 1.4380565767875473 0.0 0.042922087148543814 0.08528354112827151
0.12639949659825747 0.16710375842540273 0.20772513864767625 0.24837027159559938 0.2890595291740998 0.3297802937127189 0.37050851995939743 0.4112194847009004 0.4518950875504933 0.49252810906583794 0.5331221931796344 0.5736884960955164 0.6142410570125834 0.6547941112330397 0.6953621323808618 0.7359665717857615 0.7766475840945373 0.8174607231488827 0.858420568526128 0.899475371602469
0.940548818234854 0.981512481181868 1.0222533292638891 1.0628031137009377 1.1031513800663235 1.143737987784829 1.184490683881672 1.227351447583099 1.2704031611967606 1.306755598111674 1.3447810260145516 1.3823691105755709 0.0 0.03183381491580641 0.06812913388587766 0.1071551389069249 0.147159145882428 0.18754667914873968 0.2281182547129457 0.26879374582114884
0.3095273814705763 0.3502835448709429 0.39103182998538083 0.4317483706685434 0.47241997593707125 0.5130462179038284 0.5536360947735547 0.5942024781432536 0.6347562326541363 0.6753059204578938 0.7158604639336665 0.7564445836959003 0.7971258687939952 0.8380119027775389 0.8791207141143668 0.9203494113926644 0.961595432942629 1.0026260616307103 1.0432234435753183 1.0835447042799715
1.123407491390445 1.1636971300226169 1.203170777116791 1.2452099773877179 1.2814110674213013 1.311680891659928 1.3512377270548532 0.0 0.042800171214226045 0.0851310390433249 0.12626832860146892 0.1670278658906332 0.2077253680374224 0.24845567332943091 0.2892295152784781 0.33002710753577497 0.3708200023729871 0.41158129983694036 0.4522915433959268 0.4929457306916442
0.5335543480103049 0.5741335014159318 0.6146957946461656 0.6552431005113808 0.6957728986773228 0.7362828642165423 0.7768021165760067 0.8174506924513527 0.8584405151072872 0.8997772518673013 0.9412525473770996 0.9827863421405593 1.02395945224585 1.0643296941704856 1.1045596178744301 1.1437848467778602 1.1842640575510999 1.2205647965602957 1.2536555760076322 1.320538161288544
0.0 0.03177796865840094 0.06798613834200741 0.10697530507421428 0.14700147905105052 0.18745548040325494 0.22812085738526114 0.26890166751459577 0.3097376582859642 0.35058138918943155 0.3913945426106456 0.43214982487098264 0.47283293398703713 0.5134522965264586 0.5540359231310448 0.5946062236839305 0.6351685872104416 0.6757040637670059 0.7161915972323606 0.7566062741082064
0.7969828389489819 0.8375409230878024 0.8786948344872372 0.920371522752946 0.9621391661180522 1.0041540477812994 1.04570003034258 1.08584261884164 1.1272271022283982 1.1666874925781132 1.215603449681657 1.2575681579280942 1.2904241843420876 0.0 0.042632622731800525 0.08489562497023384 0.12603047032135528 0.16683941672141392 0.20762993082494924 0.2484817109632222
0.2893858702034274 0.33030161170265376 0.3711832563881794 0.4119944188419423 0.45271617133181363 0.4933455705288651 0.53391462758751 0.5744781520484543 0.6150566988783275 0.6556355284271649 0.6961548409491348 0.7365667412918433 0.7767998803315377 0.816900337652526 0.8572790335676113 0.8987069509830877 0.9408320618401774 0.9827285618415466 1.0253819801638921 1.0676595962753215
1.1069843969214672 1.1522608634351985 1.1898043665612847 1.226772693372794 0.0 0.031712637494742575 0.0677909015662108 0.1067007257790324 0.14672569642546868 0.18725173731355907 0.22804442283499274 0.26898168487158225 0.3099741030212539 0.3509430192639419 0.39182737555228603 0.4325942149655392 0.47324561027820183 0.5137946926423727 0.5543081192460909 0.5948788019474701
0.6355040054242206 0.676135117503751 0.7166322862412161 0.7569170376780968 0.7968169610774878 0.83644301329261 0.8765258797187826 0.9183885319367089 0.9609857961355305 1.0022178503581352 1.0454965705317363 1.0892099384043308 1.1267679556033743 1.1626033694627234 1.1928903060831344 0.0 0.042402126324773394 0.08455940686119928 0.12567174322800292 0.1665271132651193
0.20743770148789178 0.24846292786642543 0.28956094389153775 0.33065235429534 0.3716455180096685 0.41247702762320076 0.453140064820678 0.4936909469787685 0.5341469410947137 0.5746136103251674 0.6152493043103836 0.6559898365370112 0.6967451063509883 0.7372050621231766 0.777271045640206 0.8166102695159009 0.8555304388315407 0.8951053526152631 0.9375749117917488 0.9801281015662263
1.0184508964648575 1.0612347974850354 1.0976247045857392 1.1282976551763364 0.0 0.031641306167448854 0.06755214194630964 0.10634906882485132 0.14635300641987753 0.1869535261951173 0.2279127650048327 0.2690691403732803 0.31028581796981647 0.35143299054439886 0.3923767404950234 0.43305918758671985 0.47354925572350753 0.514017141493917 0.554387627645982 0.5948071490458468
0.6356158176369433 0.6765808887532669 0.7176125126074732 0.757919940825561 0.7977366088774673 0.8362985387455658 0.8741491813584344 0.9128279686342968 0.9554601515741721 0.9936645952217514 1.0302517337529473 1.0636356971390655 0.0 0.04212604359668716 0.08417166174935738 0.12527297556988093 0.166180243764391 0.20721020918993355 0.24845055712105935 0.28980295970769315
0.33112869069458817 0.37227210116643844 0.4130429920674032 0.4534408780053082 0.4937287705783049 0.5342581892913215 0.5745155925979715 0.614832269879542 0.6560206864003724 0.697389972494335 0.7387867218533699 0.7786937527198302 0.8192503146309392 0.8565705786853189 0.8933233768776002 0.9295983845461184 0.963046447011915 1.025777735447772 0.0 0.03158651718748148