TITLE = "Written by meshio v4.3.8"
VARIABLES = "X", "Y"
ZONE NODES = 436, ELEMENTS = 785,
DATAPACKING = BLOCK, ZONETYPE = FETRIANGLE
0.0 2.0 6.123233995736766e-17 1.0 1.0697483468993632 1.1393879860385998 1.210800031805135 1.2872936700372646 1.3667957781361795 1.4477040204942828 1.529063804923052 1.6103051896339806 1.6910712403344819 1.7710583961913984 1.8503231654597312 1.9304262835874264 0.9965934915637408 1.0712684961601708 1.1502751516388494 1.2350060634087925
1.3202218628190086 1.4045090870946015 1.4879973969952773 1.5708592711973937 1.6531620443932447 1.7350293925227063 1.8170323381577582 1.9019948156839603 1.9984520190494917 0.9874620051875127 1.083247419113924 1.183048839222018 1.2736397507291148 1.360721092875313 1.4461203466443922 1.5305769660766702 1.6143621299067552 1.697452824894232 1.7795973690091305 1.8596574603565301
1.9356619580696015 0.9710916511472024 1.0509712120049162 1.139069970829376 1.2297245176968314 1.3175750436689138 1.403958130909939 1.4895623253861308 1.574802435853262 1.659979803468011 1.7453557101709747 1.8312274488727307 1.9150417099233292 1.9928254335959652 1.0223513043839243 1.1052999344210033 1.189732304805847 1.275852311843857 1.361936985626528 1.4478080250648333
1.5335995861404865 1.6196253812062416 1.7064476930152457 1.7951953168513362 1.8888563931208981 1.9841669633680175 0.9468459983562215 1.073624537169023 1.1537875964346271 1.2361529053584892 1.3206244001443628 1.4059077927208903 1.4914731514664046 1.5771786687783864 1.6629415505322187 1.7480895946909922 1.8297514563745914 1.9034752609280343 1.973330480466935 0.9191542908975979
1.006802786415738 1.1064168482559533 1.1929671417469645 1.2782551396319346 1.3636653374340977 1.4491841367730116 1.5348098687951968 1.6206620663471418 1.7068916926919264 1.7931123428941944 1.8761096410333906 1.9575975661011855 0.8854590211269056 0.9703499102347305 1.0537209643426355 1.1462076035602806 1.234376937950987 1.3208255757800385 1.4066408423528347 1.4921420665003988
1.577605990783592 1.6635631322644713 1.7512446217437891 1.8431099490811726 1.939602216356165 0.8465325939537816 0.9313060977499554 1.0147723735166214 1.0997836966155805 1.1895644863804327 1.277574870224506 1.3640743890246676 1.449551553921861 1.534104779600979 1.6175459140461301 1.6992601842165616 1.777772452931743 1.8494851579595675 1.9201097169169612 0.8031353925948689
0.8887733813167905 0.9731548161813449 1.0593240680779041 1.1462430109867634 1.2346520071880362 1.322007623664123 1.4080973275513031 1.4929906668901998 1.5765581073847241 1.6584693367370933 1.738293380091221 1.8156814611376653 1.8944418781976986 0.7543012663445621 0.8387832400643237 0.9277760704772483 1.0176662997921149 1.106123737135847 1.1934749928144333 1.2808333627961987
1.3674948054129021 1.453217902019227 1.5378869935878663 1.6213608732961822 1.7035472032509498 1.784588521702596 1.8667297261970974 0.698436254817108 0.7757822046728372 0.8539090623821692 0.9263270702038835 0.9988844218855272 1.0769021966446535 1.1586711761173825 1.242713134752219 1.328162742473882 1.4139722817702691 1.4994979217739566 1.5843929697968153 1.668512613773454
1.75199897463581 1.8361438421293261 0.5836404061569255 0.64029488453861 0.7166190313897163 0.7984376881973896 0.8786178438256432 0.9612095433136892 1.0416801134961482 1.1228440005035218 1.2054000171505397 1.289425853379585 1.3746553013558922 1.4604733407845525 1.546327324065531 1.6318723844801184 1.7170623621117533 1.8025487595754568 0.45254979395980177 0.5159271538848923
0.5862364207196161 0.6618905134161268 0.7465274121047402 0.8306439087183543 0.915621596316264 1.0004309609601854 1.0833769148284622 1.166178223464953 1.249708333354619 1.3343992610706437 1.420183690836412 1.5066039891980583 1.5931661163637538 1.6795631439072216 1.7659339189499406 0.3073479027921379 0.3785369773429532 0.4470094827280713 0.5299428987239313 0.6238949022873532
0.7030324945768024 0.786167973970582 0.8710084873213055 0.956522045011278 1.0414692144195148 1.1252347267946026 1.2086689005757183 1.2927803634176822 1.378230767813477 1.4648921462692002 1.5521755193838942 1.6394618957343057 1.7263452885241741 0.08150316678124973 0.15831618071054102 0.22841258488898783 0.2849763317796851 0.3635343981179285 0.43247012683000985 0.5080473823931495
0.584816174980256 0.6669999745102648 0.7468145832803156 0.8294762487416476 0.9138676630585767 0.9988113665976244 1.0833982174071133 1.1672081805864585 1.2505132428123282 1.334858117351531 1.4211451541643116 1.5088224486147948 1.5968107371294755 1.6838652307162236 0.0 0.06458935080979172 0.1410940072459521 0.2192839645497561 0.30631147953057164 0.38343825678945326
0.46907071579693427 0.5483657863969739 0.6274571065496346 0.7082972182113926 0.7896188227674636 0.8727963842118374 0.9570461711906143 1.0415165153300716 1.1256864179325299 1.2091333136005131 1.291516130091194 1.375918787715951 1.4632327359152943 1.5517755848442116 1.638601453181896 0.0 0.08890629751842648 0.1747263522040238 0.25498620008299655 0.33864733594907565
0.42210711016243757 0.506529221417239 0.5873316231282633 0.6677812740580339 0.749316803127625 0.8319551097791145 0.9158555661236778 1.0002354108319385 1.0843395130947013 1.1681480978793866 1.2510863253110884 1.3313831916593486 1.4160365127072436 1.5047288675156536 1.5906619247722051 0.0 0.0640207618109506 0.13851414194201345 0.21633326211463635 0.2955390747524116
0.37861074626343755 0.4620088105165036 0.545192081614631 0.626594000859138 0.7079614783236603 0.7903375732507386 0.8741116337996994 0.9588865781859458 1.043537627415998 1.1271126384904897 1.2109012256488547 1.2939925340620233 1.3699946257073934 1.4565437785193713 1.5400805190960785 0.0 0.08553811269361347 0.1703201834492709 0.2527751015335942 0.33529424372639594
0.4187702069512868 0.5019831760571687 0.5845805706246499 0.6663327555637221 0.7482439402070424 0.8312339711559553 0.9161754873948068 1.0020682591082468 1.0869367783537975 1.1690755292720778 1.2541829675075848 1.3413033153514893 1.4103209005833044 1.4865833482749111 0.0 0.06480589029602313 0.13764946244416962 0.2153093911061535 0.2954139215346792 0.377237145646042
0.46002394527785084 0.5426225276171794 0.6247145711954398 0.7065433137422119 0.788543783638015 0.8717329710175308 0.9580384881971028 1.0452846609311954 1.1295578740329164 1.2066427308114949 1.2948917843352694 1.374693702552667 1.4279146084835304 0.0 0.08557990563891844 0.17045848416992504 0.25322804459263853 0.3357736389698296 0.41864799609708486 0.5015311691944873
0.5837405958222095 0.6653906854923881 0.7472262310457912 0.8287561519518899 0.9114165125953191 0.9993569044028243 1.0880647403477335 1.170214966341545 1.2423411583566624 1.3152332598066092 0.0 0.0651215221670621 0.13829938749928697 0.21564045242497842 0.29616330600504553 0.37848539846712487 0.4612963400023118 0.5440766953957846 0.625682108651588 0.7068259586511496
0.7889314848215494 0.8690062200342272 0.9492801981783235 1.0374320076592236 1.1169024809739048 1.1900232501841812 1.2495498014387925 0.0 0.08633764904419183 0.16992197694800362 0.2529105937819808 0.33742125250843513 0.4211969992753688 0.5044461900161707 0.587831697519423 0.6689109327654572 0.7496764047155209 0.8342836720515961 0.9106895553583462 0.9849450553023366
1.0536116080753772 1.1229150616247447 0.0 0.0657628992325113 0.13798761058415526 0.21307556867415192 0.29593632940077386 0.3818323661642554 0.4652832137571539 0.548076512105814 0.6343878397818566 0.7141355476213189 0.7959094590731846 0.8935880053976744 0.9735553632600084 1.0489575856387032 0.0 0.08024078155978755 0.16198809040126666 0.25016294399290345
0.337928792168989 0.42741455812746826 0.508215179981713 0.5913017662431956 0.6848583180299269 0.7620829747004814 0.8393519325001556 0.9071423903209502 0.9742723999436637 0.0 0.0762497658072893 0.14109021769050403 0.21737264462450603 0.29800936864610145 0.38235094169335176 0.4739796992578902 0.5507433732720567 0.6288785348159249 0.7573004094567015 0.8303661045165882
0.06437109825737365 0.11887256180896828 0.19189078933740847 0.26490142220690793 0.33967446130689904 0.41637399270166503 0.5368428989008944 0.6112206106839303 0.6895330931674277 0.0 0.07427337257394839 0.15787460860967698 0.235007951532546 0.3110438378124776 0.3876936265204939 0.46781902420690247
2.0 0.0 1.0 -2.4492935982947064e-16 0.0 0.0 0.0 0.0 0.0 0.0 0.0 0.0 0.0 0.0 0.0 0.0 0.08247067704822306 0.07035822294806181 0.0764785702947022 0.07364125033449732
0.07268608637732273 0.07249645525102193 0.07264378563321623 0.07294382136371365 0.07325880211638747 0.07338524566179405 0.07213301909709703 0.06619444314262007 0.07867355055551285 0.1578568601963711 0.1432254812339067 0.14316792231360853 0.1426118613440337 0.1431388597630136 0.14388498664098465 0.14468080796663466 0.1454789354066056 0.1460857545462301 0.14584204100513318 0.1414195012261639
0.12879303589477967 0.23870694391282413 0.21689695285360922 0.20743261850157793 0.21005148533466841 0.21212001551177875 0.21379968283388773 0.21517881171696449 0.21639040354166875 0.2174391228483709 0.21787676543829648 0.2166225179709354 0.20708368234349914 0.16925362983715578 0.2992680029297902 0.27961758272812226 0.27763223679194143 0.2805584977383008 0.2829868483791343 0.2848713796214194
0.28634446845142336 0.2874754590612755 0.28800602335999964 0.28658313527198326 0.28177246082031804 0.25116023068738463 0.32168720117034527 0.3533980847423426 0.3492989659021569 0.3501255581490124 0.35237095031949023 0.3544148291973983 0.35607482399103785 0.35733506121253955 0.35818241867184286 0.35839855732213555 0.3563737093436343 0.35635505811930174 0.3255254442591787 0.39389768915866197
0.3922750766912335 0.4186156676310162 0.420564567420591 0.4221655460039293 0.42410447436514526 0.4258662489700754 0.42727453366910284 0.4283196523743979 0.42931727456181873 0.4311851467411098 0.4317398501384174 0.40964834821431145 0.46471746460078533 0.46612726894826717 0.4722989876968164 0.4873085121210269 0.49119564796034487 0.4935690388220919 0.49564234755704867 0.49732155496044117
0.4984771618783148 0.49911919170048125 0.49983578543181134 0.5032224377798111 0.4877942622727864 0.5323368927416942 0.5387538461981004 0.5438547679149879 0.5493333568390196 0.5578246237461513 0.5621197791498609 0.5651012049889629 0.5674939443623411 0.5693218946884134 0.5705392988043246 0.571262017417586 0.5721715968504387 0.5788022426680779 0.5596236905287935 0.5957965602128682
0.6086975044463508 0.6156895336997006 0.6189689482712093 0.6233103599548835 0.6293173553035376 0.6337692308876767 0.63728101990201 0.6401940643548124 0.6426138488811869 0.6446673737392132 0.6466609307382795 0.650404886451185 0.6411629825019348 0.6565284453784085 0.6722757678599226 0.6863719640367558 0.6884840339841906 0.6917437273852981 0.6963437630038191 0.701636830167779
0.7062543062503929 0.7102598708518401 0.7138181556297973 0.7170357614826002 0.7199749150616572 0.7228396366834016 0.7178580147439396 0.7156722699371912 0.7355812650254914 0.7481840366908011 0.7634900713609825 0.7616232814060693 0.7629012642673687 0.7660717576753089 0.7702158890749322 0.7748929659380159 0.7794878159872417 0.7838633032956854 0.7879993482009634 0.7918049713773622
0.7948840400208813 0.7928277183667053 0.8120122390093507 0.7681291954051012 0.7997421384295312 0.8148660238370626 0.8288172883453983 0.8363866757817628 0.8364552852336592 0.8379461718938123 0.8406306527332523 0.844183334763878 0.8484187153443024 0.8529991770163619 0.8576860043695264 0.8622359827394723 0.8660764588613808 0.8664975299174156 0.8917391344933455 0.8566324602092981
0.8891081751840232 0.8636047080103141 0.880079110520694 0.893661879506336 0.9032779160039122 0.9083536016463546 0.9100164738590684 0.9118968200367203 0.9143276597792035 0.9175359764549843 0.9216102011534986 0.9263336869962421 0.9313701326975741 0.9361417198607295 0.9388702753320638 0.951597218706147 0.9255861692916875 0.9689919739195841 0.9469897666685477 0.9517993405524567
0.947882668387619 0.9596484294199501 0.9693943537612435 0.9763883103800792 0.9807499840978943 0.9832223510441253 0.9851502128452321 0.9871632603294064 0.9900739053196762 0.9941964998129591 0.9992973155619549 1.0048869512732561 1.0098177780126403 0.9966730827129966 0.987388468094107 0.9735644257389086 1.0244275591896927 1.013348214224377 1.0424441393280108 1.028299246704214
1.0219612405553484 1.0254516234806916 1.0290356404648466 1.0370635039864478 1.0440905906161564 1.049640026324276 1.053701056101544 1.056528602618 1.057940080048563 1.0590744586175411 1.0616616034417319 1.066133628784273 1.0721481148403709 1.0791653648931656 1.0848353481837403 1.066223288082009 1.0674037130944518 1.0674469112183607 1.092957658536978 1.1009519277640376
1.1085221781857124 1.1013987791872617 1.099247963097449 1.1025526834338115 1.106982762324198 1.1128719060532846 1.1184424513455085 1.1232326951346634 1.1272377357049725 1.1303155591114928 1.1302127512939921 1.1297485447415254 1.1322014989624207 1.1377864418386552 1.1467280748417117 1.1606974703766992 1.1388685669458984 1.1441196179430932 1.1534240093901909 1.1699381524043038
1.1756837614218527 1.178632000913911 1.1757908274758113 1.1759263551391608 1.178823585894801 1.182750750191234 1.1876406818264098 1.1926830903622188 1.197207637069897 1.2014797118962621 1.2051156326092418 1.2013682160502874 1.1986192880404778 1.2017752997521975 1.2123508737490085 1.2451356776536735 1.21069346861382 1.218037991887223 1.2262304151952963 1.2363730769924344
1.2453686286100891 1.2494514792798666 1.2511390365441035 1.2506076376083775 1.2514814191674977 1.253628586760606 1.2570241094677397 1.261769062872954 1.26714329376269 1.2716526556310788 1.2765323439616298 1.2817351304716313 1.2696001255945835 1.264579650284174 1.275990593500106 1.319040662402691 1.2884685720668265 1.2979108543145221 1.3068296346977828 1.314648995488169
1.3204592997485431 1.323520339343643 1.3249162209673055 1.3252756330071056 1.3258809181378814 1.3269332150781878 1.3300855763642603 1.3356279812609222 1.3425800634485554 1.3464604162758445 1.3517466276964483 1.3606258199866068 1.3291942878517264 1.3379349568016208 1.4011545444395406 1.363320233093291 1.3712076689350536 1.3789630732101485 1.3860254397836194 1.3915422547818659
1.3955879204297008 1.39805676852251 1.3992135068220803 1.3995690202239859 1.3991847473717753 1.3985861835467226 1.4019980048452956 1.4098403347074322 1.421188024087203 1.4204092198763953 1.4244211283245996 1.452658674349222 1.4003784741559429 1.473576862761538 1.441397465869563 1.4505885207688984 1.458046533736742 1.4635022800658677 1.4675114376102134 1.4708508817397699
1.4729978954940672 1.4735846406890534 1.473454073919117 1.471445688519812 1.468150973999846 1.4727701546427785 1.4857796772940164 1.5088866621545922 1.4852127667854715 1.5067055028433658 1.5542204471906809 1.515617205208262 1.5235396111677806 1.5310126184213813 1.5361976460126285 1.5397935203001898 1.5430734467366425 1.5464960547381985 1.548304181571388 1.5475244990310482
1.5471032995522809 1.542735197735752 1.5350523740331927 1.543289605920044 1.5688919470562253 1.6074341865286672 1.5616098404288676 1.6253016427707196 1.5921387181376723 1.6038422562649086 1.6089840626644307 1.612109973151652 1.6152919164267756 1.6184478275628837 1.6228941387868923 1.62361142891445 1.6200187605845406 1.6207303661471542 1.6132888083245205 1.5986462473889353
1.624351426931443 1.6550111070250542 1.7048508521457106 1.6632563481879397 1.678534960939622 1.6839094954600393 1.683120630461316 1.6871745546061199 1.690868913614587 1.693540027795367 1.700079898254165 1.698284366326366 1.6870890876479452 1.6927844210383065 1.6713890960487463 1.7028470229386499 1.7778910469615123 1.739213957286997 1.7630715762469678 1.7554961913582527
1.7541984473155527 1.7631780526654472 1.7680883331507802 1.7648182751344017 1.780214965735758 1.7677445145669217 1.7453011512236534 1.782440092592958 1.7466520233601233 1.852357927512152 1.8127437851292996 1.8488804958471607 1.8309923712082332 1.8250769007486911 1.8232896368978804 1.8462986944999036 1.8428458662076006 1.8299655723834047 1.851079709206687 1.8194757850738075
1.8946912383025711 1.9319114873172416 1.9137873122979676 1.9036810496835632 1.895602598372766 1.8905295001242648 1.926603151118487 1.9043133578996823 1.8773769236429214 1.931951850272002 1.9986203907011686 1.9937591649836601 1.9861448242050417 1.9756648832630712 1.9620636207716071 1.9445167421727438
42 55 67
385 399 398
399 385 386
408 420 407
428 418 429
350 367 349
363 362 345
165 164 148
165 182 164
190 191 209
38 25 26
13 14 26
25 13 26
121 122 136
18 19 31
19 18 6
420 406 407
425 435 434
435 426 436
426 435 425
430 431 1
398 383 384
368 384 383
384 368 369
398 397 383
384 385 398
385 384 369
400 401 414
400 399 386
394 408 407
314 294 295
292 312 311
308 327 307
348 330 349
370 385 369
385 370 386
324 342 323
342 324 343
362 344 345
163 182 181
260 240 261
3 214 236
3 236 235
237 214 215
217 196 218
196 217 216
285 284 264
283 284 303
160 176 159
195 213 194
24 37 36
37 49 36
49 37 50
37 24 25
38 37 25
37 38 50
24 12 25
12 24 11
12 13 25
29 16 2
16 29 28
14 27 26
80 94 93
108 94 95
106 121 120
122 137 136
109 108 95
187 186 169
55 68 81
153 137 138
18 5 6
18 4 5
18 17 4
7 19 6
20 7 8
7 20 19
9 10 22
23 24 36
24 23 11
10 23 22
23 10 11
417 418 428
418 417 404
417 403 404
392 391 376
377 392 376
429 418 405
419 406 420
401 415 414
415 401 402
415 425 414
415 426 425
413 400 414
400 413 399
421 430 410
421 431 430
362 379 378
379 394 378
379 362 363
208 190 209
293 312 292
267 247 268
367 366 348
367 348 349
401 388 402
370 353 354
353 370 369
360 377 376
360 342 343
327 326 307
326 327 345
344 326 345
121 135 120
135 121 136
135 134 120
200 181 182
240 241 261
215 216 238
237 236 214
179 180 199
196 197 218
218 198 219
282 281 261
281 260 261
304 323 303
304 324 323
304 284 285
284 304 303
263 243 264
263 284 283
284 263 264
118 119 133
104 119 118
104 105 119
130 131 145
129 143 128
127 113 128
72 85 71
125 140 139
177 195 194
176 177 194
177 176 160
146 147 162
131 146 145
234 255 233
41 29 54
29 41 28
39 38 26
27 39 26
15 16 28
27 15 28
15 27 14
49 48 36
94 107 93
107 108 122
121 107 122
107 94 108
106 107 121
107 106 93
124 125 139
138 124 139
125 124 110
124 109 110
109 96 110
96 109 95
56 68 55
81 80 67
94 81 95
81 94 80
55 81 67
170 187 169
153 170 169
17 31 30
17 18 31
9 21 8
21 20 8
21 9 22
416 436 426
427 417 428
393 377 378
406 393 407
393 394 407
394 393 378
392 393 406
393 392 377
405 418 404
405 392 406
391 405 404
392 405 391
419 405 406
429 405 419
425 424 414
424 425 434
433 424 434
424 413 414
411 397 398
397 411 410
411 421 410
382 396 381
330 310 311
290 310 309
269 289 268
308 289 309
290 289 269
289 290 309
270 269 249
270 290 269
250 270 249
270 250 271
250 251 271
251 250 229
208 189 190
231 253 252
253 231 232
193 176 194
330 331 349
331 350 349
331 330 311
312 331 311
332 331 312
331 332 350
313 314 333
314 313 294
313 293 294
293 313 312
312 333 332
312 313 333
328 308 309
308 328 327
364 365 381
365 382 381
366 365 348
365 366 382
390 391 404
403 390 404
400 387 401
387 400 386
388 387 372
387 388 401
335 334 315
296 316 315
335 315 316
337 355 354
337 318 319
334 352 351
369 368 351
369 351 352
352 334 335
352 353 369
353 352 335
323 322 303
338 337 319
337 338 355
344 361 343
377 361 378
361 362 378
361 344 362
360 361 377
361 360 343
306 287 307
287 306 286
326 306 307
135 150 149
185 186 204
152 153 169
137 152 136
153 152 137
235 236 257
180 163 181
163 164 182
219 240 218
219 241 240
198 197 179
218 197 198
301 281 282
282 262 283
262 282 261
241 262 261
262 263 283
118 117 104
144 130 145
160 144 145
144 160 159
130 144 129
144 143 129
143 144 159
157 158 174
158 143 159
99 98 85
172 189 171
189 172 190
177 178 195
65 79 78
108 123 122
123 137 122
137 123 138
109 123 108
124 123 109
123 124 138
205 187 206
186 205 204
187 205 186
205 226 204
205 227 226
227 205 206
248 269 268
247 248 268
269 248 249
226 248 247
248 227 249
227 248 226
250 228 229
228 250 249
227 228 249
228 227 206
56 69 68
154 138 139
154 153 138
154 170 153
170 154 171
43 55 42
43 56 55
30 43 42
43 30 31
20 32 19
19 32 31
47 48 60
417 416 403
416 415 402
403 416 402
415 416 426
427 416 417
416 427 436
413 412 399
399 412 411
399 411 398
394 395 409
394 409 408
379 395 394
395 396 409
288 267 268
288 308 307
287 288 307
267 288 287
288 289 308
289 288 268
310 291 311
292 291 271
291 292 311
291 310 290
270 291 290
291 270 271
272 292 271
272 293 292
272 251 252
251 272 271
187 188 206
188 170 171
170 188 187
189 188 171
230 208 209
251 230 252
208 230 229
230 251 229
230 231 252
231 230 209
254 232 233
255 254 233
254 253 232
192 191 174
212 234 233
234 212 213
213 212 194
212 193 194
267 246 247
285 265 286
265 285 264
327 346 345
346 364 363
346 363 345
328 346 327
310 329 309
348 329 330
329 310 330
329 328 309
355 371 354
370 371 386
371 370 354
371 355 372
387 371 372
371 387 386
316 317 335
325 344 343
324 325 343
325 326 344
325 306 326
166 150 167
136 151 150
150 151 167
136 150 135
152 151 136
179 199 198
200 199 181
199 180 181
221 199 200
239 240 260
240 239 218
239 217 218
259 239 260
301 300 281
302 282 283
302 283 303
322 302 303
302 322 321
301 302 321
302 301 282
242 221 243
263 242 243
262 242 263
242 262 241
147 132 133
132 118 133
132 146 131
146 132 147
132 117 118
117 132 131
142 157 141
143 142 128
142 127 128
127 142 141
158 142 143
142 158 157
111 125 110
85 84 71
98 84 85
191 173 174
173 191 190
173 157 174
172 173 190
161 160 145
146 161 145
161 177 160
161 146 162
161 178 177
178 161 162
92 78 79
40 27 28
41 40 28
40 39 27
40 52 39
82 96 95
81 82 95
96 82 83
82 81 68
69 82 68
82 69 83
155 172 171
140 155 139
154 155 171
155 154 139
21 33 20
32 33 45
33 32 20
44 43 31
43 44 56
32 44 31
44 32 45
23 35 22
35 23 36
48 35 36
47 35 48
423 424 433
423 433 432
424 423 413
423 412 413
380 379 363
380 364 381
364 380 363
395 381 396
395 380 381
380 395 379
293 273 294
253 273 252
272 273 293
273 272 252
207 189 208
207 208 229
207 228 206
228 207 229
207 188 189
188 207 206
275 254 255
158 175 174
176 175 159
193 175 176
175 158 159
192 175 193
175 192 174
231 210 232
210 231 209
191 210 209
192 210 191
222 221 200
221 222 243
266 267 287
266 287 286
266 246 267
246 266 245
266 265 245
265 266 286
346 347 364
365 347 348
347 365 364
347 346 328
329 347 328
347 329 348
389 403 402
388 389 402
389 390 403
391 375 376
390 375 391
353 336 354
336 337 354
336 353 335
337 336 318
336 317 318
317 336 335
305 304 285
305 285 286
304 305 324
306 305 286
325 305 306
305 325 324
134 149 148
149 165 148
135 149 134
166 149 150
149 166 165
185 168 186
186 168 169
168 185 167
168 152 169
168 151 152
151 168 167
279 258 259
278 258 279
280 259 260
281 280 260
280 279 259
300 280 281
199 220 198
220 219 198
219 220 241
220 199 221
242 220 221
220 242 241
62 49 50
117 103 104
115 130 129
126 127 141
140 126 141
126 140 125
111 126 125
97 96 83
96 97 110
97 111 110
111 97 98
97 84 98
84 97 83
91 105 104
78 91 77
92 91 78
91 92 105
52 51 39
38 51 50
39 51 38
64 51 52
65 78 77
65 66 79
64 65 77
65 64 52
69 70 83
84 70 71
70 84 83
70 58 71
59 60 72
59 72 71
59 47 60
58 59 71
157 156 141
156 140 141
173 156 157
156 173 172
155 156 172
156 155 140
34 33 21
34 21 22
34 35 47
35 34 22
421 422 431
431 422 432
421 411 412
421 412 422
423 422 412
422 423 432
273 274 294
294 274 295
254 274 253
274 273 253
275 274 254
274 275 295
211 192 193
211 212 233
232 211 233
212 211 193
211 210 192
210 211 232
203 185 204
166 183 165
165 183 182
244 223 245
265 244 245
243 244 264
244 265 264
222 244 243
244 222 223
320 301 321
320 338 319
300 320 319
320 300 301
320 339 338
339 320 321
355 356 372
338 356 355
356 339 357
339 356 338
339 340 357
322 340 321
340 339 321
389 374 390
374 375 390
239 238 217
217 238 216
215 238 237
238 239 259
258 238 259
238 258 237
297 317 316
297 316 296
258 257 237
237 257 236
235 257 256
278 257 258
299 300 319
318 299 319
299 280 300
280 299 279
60 73 72
99 100 113
112 99 113
127 112 113
112 98 99
112 111 98
112 126 111
126 112 127
103 90 104
91 90 77
90 91 104
53 40 41
66 53 54
53 41 54
40 53 52
53 65 52
65 53 66
58 57 45
44 57 56
57 69 56
57 44 45
70 57 58
57 70 69
46 58 45
33 46 45
59 46 47
46 59 58
34 46 33
46 34 47
225 226 247
226 225 204
246 225 247
225 203 204
201 222 200
201 202 223
201 200 182
222 201 223
201 183 202
183 201 182
185 184 167
184 166 167
184 203 202
203 184 185
184 183 166
183 184 202
360 359 342
359 360 376
375 359 376
373 389 388
373 388 372
356 373 372
373 356 357
373 374 389
374 373 357
297 277 278
276 277 297
256 257 277
276 297 296
277 257 278
256 277 276
297 298 317
298 278 279
317 298 318
298 297 278
299 298 279
298 299 318
51 63 50
63 62 50
63 51 64
63 75 62
116 117 131
130 116 131
116 103 117
115 116 130
102 116 115
116 102 103
48 61 60
61 48 49
62 61 49
61 73 60
86 99 85
86 85 72
73 86 72
86 73 87
100 86 87
86 100 99
113 114 128
114 129 128
114 115 129
100 114 113
75 89 88
102 89 103
89 102 88
89 90 103
224 246 245
223 224 245
202 224 223
203 224 202
225 224 203
224 225 246
341 322 323
342 341 323
341 340 322
359 341 342
75 74 62
87 74 88
74 75 88
73 74 87
61 74 73
74 61 62
101 87 88
102 101 88
101 102 115
101 100 87
101 114 100
114 101 115
90 76 77
76 63 64
76 64 77
63 76 75
89 76 90
76 89 75
358 374 357
340 358 357
374 358 375
358 359 375
358 341 359
341 358 340
