TITLE = "Written by meshio v4.3.8"
VARIABLES = "X", "Y"
ZONE NODES = 11561, ELEMENTS = 22810,
DATAPACKING = BLOCK, ZONETYPE = FETRIANGLE
0.01 0.02 0.02 0.01 0.010060829549569987 0.01015943372150412 0.01025967244943372 0.010354229265967909 0.010450897753137381 0.010550076231479558 0.010649999999999998 0.01075 0.010849999999999999 0.01095 0.011049999999999999 0.011149999999999998 0.01125 0.011349999999999999 0.011449999999999998 0.01155
0.011649999999999999 0.011749999999999998 0.01185 0.011949999999999999 0.01205 0.012149999999999998 0.012249999999999999 0.012349999999999996 0.01245 0.012549999999999999 0.012650000000000002 0.01275 0.012849999999999997 0.01295 0.013049999999999999 0.013149999999999998 0.01325 0.013349999999999999 0.01345 0.01355
0.013649999999999999 0.013749999999999998 0.01385 0.01395 0.014049999999999998 0.01415 0.014249999999999999 0.014349999999999998 0.014450000000000001 0.014549999999999999 0.01465 0.01475 0.014849999999999999 0.014950000000000001 0.01505 0.015149999999999999 0.01525 0.015349999999999999 0.015449999999999998 0.01555
0.01565 0.01575 0.01585 0.015950000000000002 0.016050000000000002 0.01615 0.01625 0.01635 0.01645 0.016550000000000002 0.01665 0.01675 0.01685 0.01695 0.017050000000000003 0.017150000000000002 0.01725 0.01735 0.01745 0.01755
0.017650000000000002 0.017750000000000002 0.01785 0.01795 0.01805 0.01815 0.018250000000000002 0.01835 0.01845 0.01855 0.01865 0.018750000000000003 0.018850000000000002 0.01895 0.01905 0.01915 0.019250000000000003 0.01935 0.019449923768520443 0.01954910224686262
0.019645770734032092 0.01974032755056628 0.019840566278495845 0.019939170450430053 0.01 0.010099447051651325 0.010195882290831512 0.010283339122633996 0.010387892880732781 0.010490755882817766 0.010592383779985205 0.010693590414875746 0.010794401764405125 0.010895055124393246 0.010995575742997695 0.011096025598900595 0.01119641492591776 0.011296756283372629 0.011397055854325898 0.011497319164481759
0.011597551306512285 0.011697756795783965 0.011797939690632043 0.011898103388091313 0.011998250732259564 0.012098384049731728 0.01219850525632432 0.012298615933840774 0.012398717401913409 0.012498810771400299 0.012598896986228342 0.012698976855042439 0.012799051075769674 0.012899120254824151 0.012999184922406284 0.013099245544819482 0.013199302534506827 0.013299356258294492 0.013399407044217918 0.013499455187210468
0.01359950095387505 0.013699544586509953 0.013799586306526413 0.013899626317367153 0.013999664807015323 0.014099701950166034 0.014199737910120044 0.0142997728404488 0.014399806886471233 0.014499840186576416 0.014599872873420953 0.014699905075025221 0.014799936915790249 0.014899968517453366 0.014999999999999989 0.015100031482546602 0.015200063084209728 0.01530009492497474 0.015400127126579021 0.015500159813423547
0.015600193113528745 0.015700227159551175 0.015800262089879943 0.015900298049833957 0.016000335192984657 0.016100373682632826 0.016200413693473588 0.016300455413490043 0.01640049904612496 0.01650054481278954 0.01660059295578209 0.016700643741705528 0.01680069746549319 0.01690075445518053 0.017000815077593726 0.01710087974517587 0.017200948924230356 0.01730102314495758 0.01740110301377168 0.017501189228599726
0.01760128259808662 0.01770138406615926 0.017801494743675716 0.01790161595026831 0.018001749267740477 0.018101896611908704 0.018202060309367985 0.018302243204216063 0.018402448693487748 0.018502680835518277 0.018602944145674132 0.018703243716627398 0.018803585074082262 0.018903974401099432 0.01900442425700233 0.019104944875606787 0.019205598235594912 0.01930640958512428 0.019407616220014814 0.01950924411718226
0.019612107119267252 0.019716660877366034 0.01980411770916848 0.01990055294834865 0.020000000000000004 0.010044728649681289 0.01014166722556331 0.010244724065777462 0.010336951081054476 0.01043689636950229 0.010537972605888339 0.010638838378165956 0.01073983828323651 0.010840716458280112 0.010941553566045502 0.011042315959301953 0.011143010698918489 0.01124363657270083 0.011344196501939149 0.011444695579088135
0.01154513991600854 0.011645536298569679 0.011745891137260251 0.011846210230877991 0.01194649853854322 0.012046760238535457 0.012146998814713204 0.012247217180296213 0.012347417785531667 0.01244760270833269 0.012547773725154863 0.012647932366331114 0.012748079959174135 0.012848217662107479 0.012948346491976551 0.013048467346236046 0.013148581021134597 0.01324868822676624 0.01334878959960993 0.01344888571304731
0.01354897708623303 0.013649064191617887 0.013749147461363331 0.013849227292841155 0.013949304053376663 0.014049378084364773 0.01414944970486688 0.01424951921477715 0.014349586897632821 0.014449653023130678 0.014549717849402684 0.014649781625095679 0.01474984459129451 0.01484990698332279 0.014949969032452123 0.015050030967547801 0.015150093016677142 0.015250155408705422 0.015350218374904261 0.015450282150597242
0.015550346976869262 0.015650413102367134 0.015750480785222818 0.015850550295133093 0.015950621915635205 0.016050695946623318 0.016150772707158832 0.01625085253863667 0.016350935808382122 0.016451022913766985 0.016551114286952714 0.016651210400390085 0.01675131177323379 0.01685141897886543 0.016951532653763993 0.017051653508023488 0.017151782337892562 0.017251920040825902 0.017352067633668932 0.017452226274845183
0.017552397291667365 0.017652582214468398 0.017752782819703848 0.017853001185286876 0.017953239761464606 0.018053501461456845 0.018153789769122075 0.01825410886273981 0.018354463701430377 0.01845486008399153 0.01855530442091193 0.018655803498060914 0.018756363427299205 0.01885698930108156 0.01895768404069809 0.01905844643395455 0.019159283541719935 0.01926016171676352 0.019361161621834086 0.019462027394111694
0.019563103630497757 0.019663048918945544 0.019755275934222542 0.01985833277443669 0.019955271350318708 0.01 0.010093418145747617 0.010192857130110637 0.01029197694598023 0.010386827015067638 0.010485993111430041 0.01058604020119055 0.01068654680211631 0.010787334238214158 0.010888197793228223 0.01098909754944882 0.011089964615984152 0.011190782179532443 0.011291534820940407 0.011392220182256697
0.011492840215507663 0.011593399959919124 0.011693905762144612 0.011794363930953844 0.01189478036758657 0.011995160228523307 0.012095507969786623 0.012195827391183104 0.012296121743927062 0.012396393819483039 0.012496646030154046 0.01259688047297879 0.01269709898160134 0.012797303167883321 0.012897494455845844 0.012997674109558599 0.013097843256317012 0.013198002906034335 0.013298153967583088 0.013398297262636718
0.013498433537454354 0.013598563472959927 0.013698687693402543 0.013798806773832889 0.013898921246590333 0.013999031606962625 0.014099138318153761 0.014199241815673716 0.014299342511245797 0.014399440796312727 0.014499537045210533 0.014599631618069585 0.01469972486349448 0.01479981712106806 0.014899908723720495 0.01499999999999994 0.015100091276279412 0.015200182878931847 0.015300275136505446 0.015400368381930332
0.015500462954789402 0.015600559203687202 0.015700657488754145 0.01580075818432623 0.015900861681846186 0.016000968393037336 0.01610107875340965 0.016201193226167098 0.01630131230659746 0.016401436527040084 0.01650156646254567 0.016601702737363316 0.016701846032416933 0.01680199709396571 0.01690215674368303 0.017002325890441462 0.017102505544154205 0.017202696832116723 0.017302901018398712 0.01740311952702127
0.017503353969846026 0.017603606180517043 0.017703878256073027 0.017804172608816993 0.017904492030213468 0.01800483977147679 0.01810521963241352 0.01820563606904626 0.018306094237855477 0.018406600040080982 0.01850715978449242 0.018607779817743406 0.01870846517905967 0.01880921782046764 0.01891003538401593 0.019010902450551252 0.01911180220677184 0.019212665761785912 0.019313453197883742 0.0194139597988095
0.01951400688857 0.019613172984932405 0.01970802305401978 0.019807142869889372 0.01990658185425239 0.02 0.01004203188504002 0.01013847119407218 0.010239056864881302 0.010338364919540639 0.010435749383196743 0.01053477502071903 0.010634680382306359 0.010735014299178992 0.010835691939314853 0.010936518771532254 0.011037412310050716 0.011138306458418694 0.011239166251682172 0.011339973085775265
0.011440719469110454 0.011541404745855854 0.011642032006859294 0.011742605998743124 0.011843131970369387 0.011943614979451844 0.012044059651960426 0.012144470091251998 0.012244849905943236 0.012345202260158113 0.012445529934567639 0.012545835380908974 0.012646120769300356 0.012746388028032414 0.012846638876990115 0.012946874855911283 0.013047097348369747 0.013147307602274574 0.013247506747452228 0.013347695810793965
0.013447875729345088 0.013548047361654167 0.013648211497644325 0.013748368867229915 0.013848520147866824 0.013948665971198065 0.01404880692893252 0.014148943578074795 0.014249076445607262 0.01434920603271117 0.014449332818601793 0.014549457264042503 0.014649579814595196 0.014749700903657525 0.014849820955332351 0.01494994038717108 0.015050059612828803 0.015150179044667538 0.015250299096342377 0.015350420185404704
0.01545054273595741 0.01555066718139812 0.015650793967288766 0.01575092355439267 0.015851056421925143 0.015951193071067436 0.016051334028801913 0.016151479852133162 0.01625163113277007 0.016351788502355684 0.016451952638345858 0.016552124270654934 0.01665230418920607 0.016752493252547813 0.016852692397725477 0.016952902651630308 0.01705312514408878 0.01715336112300995 0.017253611971967658 0.017353879230699722
0.017454164619091123 0.017554470065432454 0.017654797739841993 0.017755150094056878 0.017855529908748124 0.0179559403480397 0.018056385020548283 0.018156868029630735 0.018257394001256998 0.01835796799314084 0.018458595254144276 0.01855928053088966 0.018660026914224834 0.018760833748317933 0.018861693541581414 0.01896258768994937 0.019063481228467835 0.019164308060685226 0.019264985700821084 0.019365319617693697
0.019465224979281038 0.019564250616803315 0.01966163508045939 0.019760943135118718 0.01986152880592783 0.019957968114959982 0.01 0.010093337640273566 0.010190753450551102 0.010289244407892037 0.010387111859109234 0.010485046093348157 0.010584044378527415 0.010683826421289127 0.01078408107687839 0.01088467424860403 0.010985439590154134 0.011086293030382818 0.011187165173581662 0.011288019878827311
0.011388834904679488 0.011489600337985082 0.01159031312696961 0.011690974138709682 0.01179158634603169 0.011892153455513517 0.011992679367055975 0.012093167804456956 0.012193622217440733 0.012294045739610023 0.01239444120227092 0.012494811157499194 0.012595157906668132 0.012695483527508296 0.012795789899116675 0.012896078724402012 0.012996351550139573 0.013096609784814759 0.01319685471448129 0.013297087516838323
0.013397309273721712 0.013497520982186902 0.013597723564346877 0.013697917876115068 0.013798104714989318 0.013898284827000604 0.013998458912937462 0.014098627633945223 0.014198791616587592 0.014298951457448129 0.014399107727340104 0.01449926097518547 0.014599411731617584 0.01469956051235645 0.014799707821401204 0.014899854154080648 0.014999999999999942 0.015100145845919233 0.01520029217859868 0.015300439487643432
0.01540058826838231 0.015500739024814419 0.015600892272659803 0.015701048542551777 0.015801208383412344 0.01590137236605472 0.01600154108706249 0.01610171517299936 0.01620189528501066 0.01630208212388493 0.01640227643565314 0.016502479017813126 0.016602690726278325 0.01670291248316172 0.01680314528551876 0.0169033902151853 0.017003648449860506 0.017103921275598056 0.017204210100883407 0.017304516472491774
0.01740484209333195 0.017505188842500914 0.01760555879772919 0.0177059542603901 0.017806377782559404 0.017906832195543187 0.018007320632944173 0.018107846544486633 0.01820841365396847 0.018309025861290473 0.018409686873030545 0.018510399662015075 0.018611165095320643 0.018711980121172818 0.018812834826418472 0.01891370696961731 0.019014560409845966 0.019115325751396073 0.019215918923121706 0.019316173578710953
0.019415955621472646 0.0195149539066519 0.019612888140890804 0.019710755592108005 0.019809246549448913 0.019906662359726438 0.02 0.010041994224376594 0.01013735516900467 0.01023901833399895 0.010337372378196713 0.010435674414256831 0.010534316263859951 0.010633491992533974 0.010733322366890124 0.010833550476949918 0.010934082272887814 0.011034785716843291 0.011135581047140112 0.011236408282851973
0.01133723107371868 0.011438027234796904 0.0115387855178969 0.011639500936714042 0.011740172611510906 0.01184080168746407 0.011941390401216313 0.012041941384998495 0.012142457376424986 0.012242941044620995 0.012343394925270467 0.012443821391489585 0.012544222648278397 0.012644600736039652 0.01274495753884211 0.012845294794774729 0.012945614107078052 0.013045916955413026 0.013146204706836077 0.013246478626271844
0.013346739886348382 0.013446989576540615 0.013547228711605965 0.013647458239329335 0.01374767904761302 0.013847891970959854 0.013948097796403852 0.014048297268943504 0.014148491096532994 0.01424867995468291 0.014348864490719714 0.014449045327749446 0.01454922306836896 0.014649398298164081 0.014749571589032699 0.014849743502367794 0.014949914592133502 0.015050085407866395 0.015150256497632101 0.015250428410967177
0.015350601701835812 0.015450776931630932 0.015550954672250443 0.0156511355092802 0.015751320045316992 0.015851508903466937 0.015951702731056432 0.016051902203596095 0.0161521080290401 0.016252320952386965 0.01635254176067066 0.016452771288394043 0.016553010423459413 0.016653260113651664 0.016753521373728195 0.016853795293163974 0.01695408304458703 0.01705438589292202 0.01715470520522535 0.017255042461157968
0.017355399263960437 0.0174557773517217 0.017556178608510532 0.017656605074729655 0.017757058955379153 0.017857542623575168 0.017958058615001663 0.01805860959878386 0.018159198312536103 0.01825982738848927 0.01836049906328613 0.01846121448210328 0.018561972765203265 0.018662768926281492 0.01876359171714819 0.018864418952860045 0.018965214283156843 0.019065917727112306 0.019166449523050196 0.01926667763310998
0.01936650800746612 0.019465683736140136 0.019564325585743222 0.01966262762180333 0.01976098166600107 0.019862644830995334 0.019958005775623382 0.01 0.010093317478610923 0.010190868116699382 0.010288384948941125 0.010386648222729975 0.010485189962239266 0.01058388501895711 0.010683253506968181 0.010783090432184547 0.010883311765476087 0.010983790708118916 0.011084432499794157 0.011185165231271142
0.011285937112882803 0.011386714746942585 0.011487477240258068 0.011588212666445644 0.011688915063031382 0.011789581985345758 0.01189021316194694 0.011990809455212453 0.012091372352681932 0.012191903627017634 0.012292405169195518 0.012392878887725976 0.012493326655821188 0.012593750281076985 0.012694151489428063 0.012794531917397791 0.012894893109607135 0.012995236519660194 0.013095563513165199 0.013195875372089425
0.013296173299881415 0.013396458426979918 0.013496731816446516 0.013596994469549761 0.013697247331192052 0.013797491295117106 0.013897727208866268 0.013997955878473816 0.014098178072903433 0.01419839452823736 0.014298605951634104 0.014398813025075199 0.014499016408922753 0.014599216745311795 0.01469941466140103 0.014799610772506924 0.014899805685144653 0.014999999999999944 0.015100194314855243 0.01520038922749296
0.015300585338598866 0.015400783254688107 0.01550098359107714 0.015601186974924712 0.015701394048365812 0.015801605471762566 0.015901821927096504 0.01600204412152614 0.016102272791133673 0.016202508704882854 0.01630275266880792 0.016403005530450238 0.016503268183553483 0.016603541573020113 0.016703826700118635 0.016804124627910616 0.01690443648683486 0.01700476348033986 0.017105106890392935 0.017205468082602295
0.017305848510572038 0.017406249718923118 0.01750667334417892 0.01760712111227416 0.017707594830804627 0.01780809637298252 0.017908627647318244 0.01800919054478773 0.01810978683805324 0.018210418014654426 0.018311084936968817 0.018411787333554558 0.01851252275974213 0.018613285253057596 0.018714062887117383 0.018814834768729027 0.018915567500206006 0.019016209291881234 0.01911668823452404 0.01921690956781558
0.019316746493031927 0.019416114981043 0.0195148100377608 0.019613351777270086 0.019711615051058916 0.01980913188330065 0.01990668252138909 0.019999999999999997 0.010042019402644108 0.010137954960041835 0.010238897806416285 0.010337053091496429 0.010435811734015114 0.01053460268964092 0.010633650015882044 0.010733145423947854 0.010833051348712904 0.01093326622622933 0.011033706920071606 0.011134292413927174
0.011234964386974501 0.011335678749618584 0.01143640639306908 0.01153712804017915 0.011637832192085858 0.011738512154151367 0.011839164529120174 0.011939787861401166 0.012040381924035212 0.01214094720571054 0.012241484629608695 0.012341995369422756 0.012442480739397506 0.012542942122580836 0.012643380924319918 0.012743798541560205 0.01284419634272004 0.0129445756549193 0.013044937756309707 0.01314528387204033
0.013245615172763538 0.01334593277491863 0.013446237742224601 0.0135465310879789 0.013646813777871513 0.01374708673311203 0.013847350833729523 0.013947606921948744 0.014047855805577655 0.014148098261361739 0.014248335038277877 0.014348566860751174 0.0144487944317884 0.0145490184360278 0.014649239542710071 0.014749458408579136 0.014849675680722969 0.014949891999366981 0.015050108000632919 0.015150324319276926
0.015250541591420759 0.015350760457289822 0.015450981563972104 0.015551205568211511 0.015651433139248747 0.015751664961722044 0.015851901738638194 0.01595214419442229 0.016052393078051192 0.016152649166270443 0.01625291326688793 0.016353186222128474 0.016453468912021086 0.016553762257775412 0.016654067225081386 0.016754384827236478 0.01685471612795971 0.01695506224369034 0.017055424345080755 0.017155803657280026
0.017256201458439882 0.017356619075680188 0.017457057877419278 0.017557519260602623 0.01765800463057739 0.01775851537039146 0.01785905279428963 0.01795961807596497 0.018060212138599017 0.018160835470880016 0.01826148784584884 0.018362167807914352 0.018462871959821072 0.018563593606931134 0.018664321250381623 0.018765035613025692 0.018865707586073 0.018966293079928562 0.019066733773770824 0.019166948651287232
0.01926685457605227 0.019366349984118063 0.019465397310359168 0.019564188265984966 0.01966294690850362 0.019761102193583773 0.01986204503995818 0.019957980597355894 0.01 0.01009327407864781 0.01019088377075181 0.010288417290156922 0.01038681194671414 0.010485544359978836 0.010584370222751079 0.010683588879719631 0.010783194341803049 0.010883145370937776 0.010983361144053022 0.011083768607505847
0.011184304804129784 0.011284920410672855 0.011385579630802493 0.011486256989644596 0.011586935679661329 0.011687604673866092 0.011788257182920198 0.01188888911329744 0.011989498203475224 0.012090083363142212 0.012190644285139322 0.01229118117814394 0.012391694596951379 0.012492185325874742 0.012592654298573472 0.012693102541403297 0.012793531133009645 0.012893941175539266 0.012994333774211485 0.013094710023084823
0.01319507099537712 0.01329541773716718 0.013395751263580068 0.013496072556795271 0.013596382565382172 0.013696682204600501 0.013796972357399214 0.013897253875917902 0.013997527583345082 0.014097794276024003 0.0141980547257241 0.014298309682017998 0.014398559874720664 0.014498806016361155 0.014599048804666847 0.014699288925048471 0.014799527053078874 0.014899763856963124 0.01499999999999995 0.015100236143036794
0.015200472946921038 0.01530071107495143 0.015400951195333074 0.015501193983638759 0.015601440125279243 0.01570169031798192 0.015801945274275822 0.01590220572397593 0.016002472416654864 0.016102746124082055 0.016203027642600756 0.01630331779539946 0.016403617434617813 0.016503927443204714 0.016604248736419944 0.016704582262832834 0.016804929004622913 0.016905289976915202 0.017005666225788568 0.017106058824460785
0.017206468866990433 0.017306897458596798 0.01740734570142664 0.017507814674125387 0.01760830540304877 0.017708818821856213 0.01780935571486085 0.01790991663685797 0.018010501796524976 0.01811111088670276 0.018211742817080018 0.018312395326134132 0.01841306432033891 0.018513743010355632 0.018614420369197724 0.018715079589327364 0.01881569519587042 0.018916231392494338 0.019016638855947152 0.019116854629062388
0.019216805658197098 0.01931641112028049 0.01941562977724902 0.019514455640021248 0.019613188053285917 0.019711582709843127 0.019809116229248223 0.019906725921352206 0.02 0.010041970440175107 0.010138021318785653 0.010239042987030543 0.010337348871543818 0.01043620037838975 0.010535168957647075 0.010634224283419829 0.010733621638847973 0.010833332840041825 0.01093333242710162 0.011033550859969614
0.011133932666953764 0.011234425807812469 0.011334991535184918 0.011435599793047263 0.011536229560967127 0.011636865954754518 0.011737498963572303 0.011838121839481033 0.011938730174995306 0.012039321148044827 0.012139893055578596 0.012240444978200149 0.012340976557552879 0.012441487837904875 0.012541979153192714 0.012642451044307983 0.012742904197716606 0.012843339399707231 0.012943757502132414 0.013044159396893464
0.013144545997026498 0.013244918222848113 0.013345276991944186 0.013445623212089482 0.013545957776392517 0.013646281560136354 0.013746595418915637 0.013846900187767137 0.013947196681062398 0.014047485692981301 0.014147767998425575 0.01424804435426153 0.014348315500807472 0.014448582163500801 0.01454884505469668 0.014649104875561434 0.01474936231803413 0.014849618066835641 0.014949872801510469 0.015050127198489444
0.015150381933164273 0.01525063768196579 0.015350895124438477 0.01545115494530324 0.015551417836499118 0.015651684499192468 0.015751955645738395 0.015852232001574373 0.015952514307018637 0.016052803318937565 0.016153099812232827 0.01625340458108433 0.0163537184398636 0.01645404222360746 0.0165543767879105 0.01665472300805582 0.0167550817771519 0.016855454002973527 0.01695584060310657 0.01705624249786764
0.01715666060029284 0.017257095802283486 0.017357548955692144 0.017458020846807417 0.017558512162095277 0.01765902344244727 0.017759555021800023 0.017860106944421583 0.01796067885195536 0.018061269825004903 0.018161878160519177 0.018262501036427906 0.018363134045245706 0.01846377043903309 0.018564400206952957 0.01866500846481529 0.018765574192187745 0.01886606733304643 0.018966449140030577 0.019066667572898557
0.019166667159958337 0.019266378361152175 0.019365775716580293 0.01946483104235304 0.019563799621610332 0.019662651128456245 0.0197609570129695 0.019861978681214386 0.019958029559824918 0.01 0.010093262937627244 0.010190972511491021 0.010288658878394915 0.01038719463811387 0.01048608669369033 0.010585001779040936 0.010684236207218601 0.010783746028242497 0.01088354893833518 0.010983585321209872
0.011083808569374194 0.011184168350207269 0.011284625293949597 0.011385147096877948 0.011485709882281285 0.011586295876949903 0.011686892395497483 0.01178749034154447 0.011888083292301798 0.011988666720302124 0.012089237489888348 0.01218979348319837 0.012290333341845854 0.012390856277189255 0.012491361930693784 0.012591850268651882 0.012692321501722515 0.012792776023115718 0.01289321436078138 0.0129936371405132
0.013094045057477178 0.013194438854360389 0.013294819304671343 0.01339518720007044 0.01349554334083724 0.013595888528790867 0.013696223562134456 0.013796549231817905 0.01389686631910186 0.013997175594071173 0.014097477814896037 0.01419777372767799 0.014298064066752067 0.014398349555342195 0.014498630906490232 0.014598908824195343 0.014699184004713817 0.014799457137979885 0.014899728909115116 0.014999999999999958
0.015100271090884819 0.015200542862020048 0.01530081599528612 0.015401091175804604 0.015501369093509701 0.015601650444657746 0.015701935933247875 0.015802226272321956 0.015902522185103928 0.01600282440592878 0.016103133680898114 0.016203450768182057 0.01630377643786551 0.016404111471209105 0.016504456659162735 0.01660481279992955 0.01670518069532865 0.016805561145639636 0.016905954942522856 0.017006362859486847
0.017106785639218684 0.01720722397688437 0.01730767849827758 0.01740814973134824 0.01750863806930635 0.0176091437228109 0.01770966665815431 0.017810206516801798 0.01791076251011184 0.018011333279698075 0.01811191670769841 0.018212509658455747 0.018313107604502728 0.018413704123050316 0.01851429011771892 0.018614852903122255 0.01871537470605062 0.018815831649792936 0.018916191430626 0.01901641467879031
0.019116451061664996 0.01921625397175766 0.019315763792781528 0.019414998220959184 0.019513913306309756 0.019612805361886202 0.019711341121605146 0.019809027488509018 0.01990673706237277 0.02 0.010042078228636668 0.01013811318876565 0.01023923654296218 0.010337674177533564 0.010436690755904247 0.010535769773156529 0.010634908122807124 0.010734294618592816 0.01083393499395174 0.010933811293026893
0.011033884932295828 0.01113411197455246 0.011234454843828201 0.011334880930182154 0.011435365102568014 0.01153588781299376 0.011636434525600741 0.011736994351005772 0.011837559211300787 0.0119381230864053 0.012038681517285056 0.012139231227847382 0.012239769855856715 0.012340295749078757 0.012440807810369683 0.012541305377284337 0.012641788127357088 0.012742256003286014 0.0128427091534602 0.01294314788479
0.013043572625259172 0.013143983894314688 0.013244382279496494 0.013344768418064082 0.013445142982594858 0.013545506669751201 0.013645860191579713 0.013746204268846596 0.013846539626016674 0.01394686698756011 0.014047187075329296 0.014147500606793872 0.014247808293961573 0.014348110842844418 0.014448408953358239 0.014548703319564201 0.014648994630179213 0.014749283569294487 0.014849570817252604 0.014949857051640198
0.015050142948359749 0.015150429182747336 0.015250716430705453 0.015351005369820741 0.015451296680435742 0.015551591046641711 0.015651889157155534 0.0157521917060384 0.015852499393206085 0.015952812924670687 0.01605313301243986 0.0161534603739833 0.01625379573115338 0.016354139808420272 0.016454493330248787 0.01655485701740514 0.016655231581935916 0.016755617720503522 0.01685601610568534 0.016956427374740863
0.017056852115210047 0.017157290846539868 0.017257743996714082 0.017358211872643022 0.017458694622715796 0.017559192189630455 0.017659704250921403 0.017760230144143456 0.017860768772152806 0.01796131848271513 0.018061876913594902 0.01816244078869942 0.018263005648994444 0.01836356547439948 0.018464112187006453 0.018564634897432198 0.018665119069818045 0.018765545156172004 0.018865888025447742 0.01896611506770435
0.019066188706973276 0.019166065006048432 0.01926570538140733 0.01936509187719302 0.01946423022684358 0.019563309244095845 0.01966232582246651 0.01976076345703788 0.01986188681123438 0.019957921771363372 0.01 0.010093239958913347 0.01019102831926992 0.010288848397591841 0.010387559530306732 0.010486599586693679 0.010585635138289359 0.010684923376901245 0.010784431216891913 0.010884172698818464
0.010984112828195567 0.011084216331741779 0.011184448136852572 0.011284776842425239 0.011385177312403738 0.011485629264598262 0.01158611718954561 0.011686629081960845 0.011787155725228628 0.011887689975105904 0.011988226296470743 0.012088760409474904 0.012189289035096945 0.012289809697896984 0.012390320571076857 0.01249082035191254 0.012591308160389924 0.012691783456652403 0.012792245973462664 0.012892695661188567
0.012993132642981861 0.013093557178434512 0.013193969634158982 0.01329437046005934 0.013394760170225728 0.013495139327594167 0.013595508531666958 0.013695868408735688 0.013796219604155925 0.013896562776308647 0.013996898591945065 0.01409722772266203 0.014197550842297062 0.01429786862506875 0.014398181744319219 0.014498490871741054 0.014598796676991608 0.014699099827614233 0.01479940098919781 0.014899700825716766
0.014999999999999979 0.015100299174283183 0.015200599010802144 0.01530090017238574 0.015401203323008353 0.015501509128258928 0.01560181825568075 0.015702131374931223 0.01580244915770291 0.015902772277337943 0.01600310140805491 0.016103437223691355 0.01620378039584407 0.016304131591264308 0.01640449146833303 0.016504860672405832 0.01660523982977427 0.016705629539940675 0.016806030365841048 0.016906442821565528
0.017006867357018188 0.0171073043388115 0.017207754026537424 0.01730821654334771 0.017408691839610194 0.01750917964808759 0.0176096794289233 0.017710190302103176 0.017810710964903238 0.01791123959052528 0.01801177370352944 0.01811231002489429 0.01821284427477158 0.01831337091803937 0.018413882810454602 0.01851437073540194 0.018614822687596455 0.018715223157574956 0.01881555186314762 0.018915783668258405
0.01901588717180461 0.019115827301181703 0.019215568783108237 0.019315076623098896 0.01941436486171077 0.019513400413306417 0.019612440469693355 0.01971115160240822 0.01980897168073013 0.01990676004108668 0.02 0.010041998492297474 0.010138110349719181 0.01023933332449902 0.01033791927327632 0.010437091029891868 0.010536309240189811 0.010635542447265486 0.010734979176730492 0.010834614309102897
0.010934444930427766 0.011034440044042217 0.011134570355487665 0.011234806407077084 0.011335124013775481 0.011435503030730218 0.011535927715321906 0.011636385616112844 0.01173686694370485 0.011837363888831757 0.011937870191028325 0.01203838082004111 0.012138891753747943 0.012239399806034508 0.012339902488045675 0.012440397892262726 0.012540884594160124 0.012641361568999811 0.012741828121365673 0.012842283825996004
0.012942728478218268 0.013043162052719694 0.013143584669353343 0.013243996564914961 0.013344398069901084 0.01344478958942322 0.013545171587568449 0.013645544574626765 0.013745909096706276 0.0138462657273417 0.013946615060764033 0.014046957706550454 0.01414729428541503 0.014247625425938715 0.014347951762069511 0.014448273931251504 0.014548592573064763 0.014648908328276105 0.014749221838215764 0.014849533744406333
0.01494984468837924 0.015050155311620728 0.015150466255593634 0.015250778161784205 0.015351091671723867 0.015451407426935217 0.015551726068748493 0.01565204823793048 0.015752374574061277 0.015852705714584955 0.015953042293449553 0.016053384939235967 0.016153734272658312 0.016254090903293723 0.016354455425373254 0.016454828412431573 0.016555210410576802 0.016655601930098952 0.01675600343508508 0.016856415330646694