TITLE = "Written by meshio v4.3.8"
VARIABLES = "X", "Y"
ZONE NODES = 7491, ELEMENTS = 14636,
DATAPACKING = BLOCK, ZONETYPE = FETRIANGLE
0.01 0.02 0.02 0.01 0.01 0.010123506301110008 0.010245487954842102 0.010367196096171953 0.010488916059711794 0.010611100863078177 0.010733875748454988 0.010857211531410569 0.010981026043214626 0.011105230388193539 0.01122974609954776 0.011354509201143075 0.011479469314885271 0.01160458732126196 0.011729832935044636 0.011855182637877538
0.011980618046570132 0.012106124670166194 0.012231690978055447 0.012357307705005083 0.012482967332493156 0.012608663699927492 0.012734391711317976 0.012860147112240948 0.012985926318814296 0.013111726285403346 0.013237544401379454 0.013363378409840095 0.013489226343059112 0.013615086470778475 0.013740957258426941 0.013866837333062355 0.013992725455356961 0.01411862049633178 0.014244521417833715 0.014370427255964408
0.014496337106831179 0.01462225011411197 0.014748165458016972 0.014874082345297308 0.014999999999999998 0.015125917654702685 0.015251834541983016 0.015377749885888017 0.015503662893168808 0.01562957274403558 0.015755478582166273 0.015881379503668212 0.016007274544643027 0.016133162666937633 0.016259042741573047 0.016384913529221515 0.016510773656940876 0.016636621590159894 0.016762455598620534 0.01688827371459664
0.01701407368118569 0.017139852887759037 0.017265608288682007 0.01739133630007249 0.017517032667506822 0.017642692294994895 0.01776830902194453 0.017893875329833782 0.01801938195342984 0.01814481736212244 0.018270167064955344 0.018395412678738017 0.01852053068511471 0.01864549079885691 0.018770253900452227 0.018894769611806448 0.019018973956785368 0.01914278846858943 0.019266124251545006 0.01938889913692182
0.019511083940288203 0.019632803903828048 0.0197545120451579 0.019876493698889993 0.02 0.010096066340999715 0.010198461619740728 0.010309095411123001 0.010425530168272185 0.010545560526829818 0.01066768014969326 0.010791001577302561 0.010915035086900752 0.011039516393459929 0.011164300060115543 0.011289301704353947 0.011414468705051101 0.011539765720761475 0.011665167469566003 0.011790654991478515
0.011916213591065226 0.012041831616698365 0.012167499679865275 0.012293210123076364 0.012418956639353012 0.012544733990735255 0.012670537795086015 0.012796364361872639 0.012922210564019512 0.013048073736814466 0.013173951597371659 0.013299842179871603 0.0134257437830133 0.013551654926991763 0.013677574317959776 0.013803500818411064 0.013929433422278956 0.01405537123381185 0.014181313449486869 0.014307259342373424
0.014433208248471168 0.014559159554631447 0.01468511268773397 0.014811067104837487 0.014937022284056987 0.01506297771594414 0.01518893289516365 0.015314887312267166 0.015440840445369688 0.015566791751529961 0.01569274065762769 0.015818686550514226 0.01594462876618924 0.016070566577722132 0.016196499181590003 0.016322425682041272 0.01644834507300928 0.01657425621698772 0.01670015782012937 0.016826048402629277
0.01695192626318643 0.01707778943598135 0.01720363563812818 0.017329462204914756 0.017455266009265457 0.01758104336064763 0.01770678987692422 0.01783250032013525 0.017958168383302095 0.018083786408935175 0.018209345008521827 0.018334832530434303 0.01846023427923878 0.018585531294949106 0.0187106982956462 0.01883569993988456 0.018960483606540134 0.019084964913099252 0.0192089984226974 0.01933231985030667
0.019454439473170108 0.019574469831727743 0.019690904588876946 0.019801538380259213 0.019903933659000235 0.01 0.010112999646528334 0.010229421943550785 0.01035108918675232 0.010474596913359951 0.01059884643333806 0.010723472810987575 0.010848345618348697 0.01097340302889468 0.011098607020948555 0.011223930788807894 0.011349354194605397 0.011474861500834576 0.011600440027885616 0.011726079319023499
0.01185177060909821 0.011977506473436565 0.012103280582276945 0.012229087518102465 0.012354922632556985 0.012480781930336943 0.012606661972997974 0.012732559798371929 0.01285847285265711 0.012984398932965551 0.013110336138546057 0.013236282829209876 0.01336223758973365 0.013488199199223597 0.0136141666046043 0.013740138897546713 0.013866115294274884 0.013992095117792145 0.014118077782147312 0.014244062778423617
0.014370049662179933 0.014496038042109503 0.014622027569707171 0.014748017929754907 0.014874008831448932 0.015000000000001106 0.015125991168553284 0.015251982070247319 0.015377972430295048 0.015503961957892705 0.01562995033782225 0.015755937221578545 0.01588192221785481 0.01600790488220998 0.01613388470572721 0.01625986110245536 0.016385833395397745 0.0165118008007784 0.016637762410268292 0.016763717170792024
0.016889663861455784 0.017015601067036205 0.017141527147344557 0.01726744020162962 0.01739333802700349 0.017519218069664434 0.017645077367444275 0.017770912481898687 0.017896719417724097 0.01802249352656436 0.018148229390902607 0.0182739206809772 0.01839955997211498 0.018525138499165927 0.018650645805395008 0.018776069211192407 0.01890139297905166 0.019026596971105446 0.01915165438165135 0.019276527189012405
0.019401153566661878 0.019525403086639945 0.01964891081324757 0.019770578056449117 0.019887000353471594 0.02 0.01 0.010137323685341131 0.010272045175693589 0.010401940007987633 0.010529304262951894 0.010655605749888159 0.010781476341175576 0.010907185976289605 0.01103285029576825 0.01115851884223273 0.011284212331775375 0.011409938583450253 0.011535699475511389 0.011661494087044989
0.01178732018348755 0.011913174957396935 0.01203905541666848 0.012164958594881233 0.01229088166581756 0.012416822003422173 0.012542777209528191 0.012668745122224075 0.012794723812627024 0.012920711574870021 0.013046706912309285 0.013172708521832052 0.013298715277431773 0.013424726213765784 0.013550740510125713 0.013676757475070942 0.013802776531862545 0.013928797204762547 0.014054819106215352 0.014180841924895307
0.014306865414580377 0.014432889383792943 0.014558913686133795 0.01468493821122301 0.014810962876150975 0.014936987617334743 0.015063012382668514 0.01518903712385228 0.015315061788780235 0.01544108631386944 0.015567110616210276 0.015693134585422815 0.01581915807510785 0.01594518089378777 0.016071202795240536 0.016197223468140502 0.01632324252493205 0.016449259489877226 0.016575273786237108 0.016701284722571062
0.01682729147817069 0.016953293087693368 0.017079288425132514 0.017205276187375374 0.017331254877778177 0.01745722279047392 0.017583177996579793 0.017709118334184256 0.017835041405120437 0.01796094458333304 0.01808682504260443 0.018212679816513644 0.018338505912956028 0.018464300524489486 0.018590061416550466 0.01871578766822519 0.018841481157767702 0.018967149704232068 0.0190928140237106 0.019218523658824517
0.01934439425011185 0.019470695737048058 0.019598059992012286 0.01972795482430633 0.019862676314658857 0.02 0.01 0.010101678269931334 0.010215043732499544 0.010337654971860498 0.010463128294488807 0.01058918653914696 0.010715284934088637 0.010841319508418632 0.010967294825754412 0.011093234117907878 0.011219157582282015 0.011345079081077543 0.011471007168809342 0.011596946660098726
0.011722899890492883 0.011848867599143997 0.01197484952187167 0.012100844786143787 0.01222685217442888 0.01235287029998166 0.01247889772373298 0.012604933031088115 0.012730974881167277 0.012857022036979488 0.01298307338236113 0.013109127929726554 0.013235184821466257 0.013361243326995058 0.01348730283687611 0.013613362855042726 0.013739422989854406 0.013865482944517593 0.01399154250725086 0.014117601541460708
0.01424365997610807 0.014369717796377576 0.014495775034708454 0.014621831762203656 0.01474788808040023 0.01487394411335779 0.015000000000002105 0.015126055886646419 0.015252111919603992 0.015378168237800569 0.015504224965295762 0.015630282203626604 0.01575634002389607 0.015882398458543397 0.016008457492753193 0.0161345170554864 0.016260577010149536 0.01638663714496114 0.016512697163127685 0.016638756673008674
0.016764815178537392 0.016890872070276973 0.017016926617642255 0.017142977963023734 0.017269025118835782 0.01739506696891476 0.017521102276269733 0.017647129700020865 0.017773147825573463 0.01789915521385836 0.018025150478130286 0.01815113240085773 0.01827710010950865 0.018403053339902595 0.018528992831191773 0.01865492091892337 0.018780842417718692 0.01890676588209265 0.019032705174245962 0.0191586804915816
0.01928471506591146 0.01941081346085304 0.01953687170551112 0.01966234502813939 0.019784956267500337 0.019898321730068565 0.020000000000000004 0.01 0.010134095206215317 0.010266580670365396 0.010395468274052341 0.01052280708123547 0.010649473903383683 0.010775837856439928 0.010902053489887757 0.011028191414462292 0.011154287433218805 0.011280361524963553 0.011406425599481438 0.011532486962670617
0.011658550053440431 0.011784617424860866 0.011910690357257956 0.012036769269513829 0.01216285400708341 0.012288944048183134 0.012415038652593136 0.012541136968868275 0.012667238110856219 0.012793341211358536 0.012919445458707489 0.013045550120570584 0.013171654558232165 0.01329775823381497 0.013423860712317395 0.013549961659899775 0.01367606083951718 0.013802158104737106 0.013928253392379623 0.01405434671445886
0.014180438149778634 0.014306527835433458 0.014432615958384624 0.014558702747215478 0.014684788464117082 0.014810873397114115 0.01493695785250874 0.015063042147496385 0.01518912660289103 0.015315211535888067 0.015441297252789673 0.01556738404162051 0.01569347216457162 0.01581956185022639 0.01594565328554613 0.016071746607625316 0.01619784189526775 0.016323939160487595 0.016450038340104913 0.01657613928768721
0.01670224176618953 0.01682834544177224 0.01695444987943368 0.01708055454129659 0.01720665878864535 0.017332761889147483 0.01745886303113523 0.01758496134741015 0.01771105595181991 0.017837145992919405 0.017963230730488736 0.018089309642744366 0.01821538257514121 0.01834144994656139 0.01846751303733096 0.018593574400519907 0.01871963847503753 0.018845712566782035 0.018971808585538336 0.01909794651011267
0.01922416214356033 0.01935052609661644 0.019477192918764548 0.01960453172594759 0.019733419329634513 0.019865904793784625 0.02 0.01 0.010101285336654229 0.010213479195177778 0.010334667182108478 0.010459283980726784 0.010585047769820274 0.01071114859418684 0.010837330424589219 0.010963518247764238 0.01108969440677272 0.011215858195055483 0.011342013054389281 0.01146816270506283
0.011594310114616844 0.011720457345166071 0.011846605655581141 0.011972755662058868 0.01209890749634753 0.01222506094407626 0.01235121555957006 0.012477370758131597 0.0126035258882735 0.012729680286774937 0.012855833319384736 0.012981984409756748 0.013108133058896293 0.013234278857076643 0.013360421489879665 0.013486560739738087 0.013612696484112388 0.01373882869122284 0.013864957414074093 0.013991082783352926
0.014117204999646745 0.014243324325317691 0.014369441076272879 0.014495555613792838 0.014621668336516038 0.014747779672625517 0.014873890072242773 0.015000000000003013 0.015126109927763247 0.015252220327380505 0.015378331663489979 0.01550444438621317 0.015630558923733103 0.015756675674688247 0.015882795000359138 0.01600891721665289 0.01613504258593165 0.016261171308782813 0.016387303515893164 0.016513439260267354
0.01663957851012567 0.016765721142928583 0.01689186694110879 0.01701801559024816 0.01714416668061999 0.017270319713229575 0.01739647411173078 0.01752262924187244 0.017648784440433718 0.017774939055927228 0.017901092503655684 0.01802724433794407 0.01815339434442151 0.0182795426548363 0.01840568988538524 0.018531837294938958 0.01865798694561222 0.01878414180494573 0.018910305593228215 0.019036481752236448
0.019162669575411247 0.019288851405813434 0.019414952230179847 0.019540716019273204 0.019665332817891443 0.01978652080482213 0.019898714663345706 0.019999999999999997 0.01 0.010133497952015347 0.010265476242090251 0.010393613306076492 0.010520393846472133 0.010646761941835354 0.010773006571428257 0.01089921596569842 0.01102541616378764 0.011151614629106282 0.011277813488913192 0.01140401341938249
0.011530214689335395 0.011656417383422575 0.011782621422264309 0.011908826556915584 0.012035032378973468 0.012161238348250687 0.012287443830909555 0.01241364814089311 0.012539850579546876 0.012666050470407449 0.012792247187723904 0.012918440178349422 0.013044628977298939 0.013170813217633304 0.013296992635498073 0.013423167071186813 0.013549336467064351 0.013675500863107634 0.013801660390722595 0.013927815265388457
0.01405396577857566 0.01418011228928477 0.01430625521546478 0.014432395025491412 0.014558532229819553 0.01468466737286887 0.014810801025156872 0.014936933775658887 0.015063066224347998 0.015189198974850012 0.015315332627138004 0.015441467770187301 0.015567604974515425 0.015693744784542024 0.015819887710721976 0.01594603422143101 0.01607218473461814 0.01619833960928392 0.016324499136898776 0.016450663532941955
0.016576832928819372 0.016703007364507975 0.0168291867823726 0.016955371022706788 0.017081559821656107 0.01720775281228142 0.017333949529597638 0.01746014942045793 0.0175863518591114 0.017712556169094642 0.01783876165175321 0.01796496762103011 0.018091173443087687 0.018217378577738648 0.018343582616580055 0.018469785310666897 0.018595986580619468 0.018722186511088437 0.018848385370895043 0.018974583836213386
0.019100784034302327 0.01922699342857224 0.019353238058164936 0.01947960615352799 0.01960638669392352 0.019734523757909694 0.019866502047984624 0.02 0.01 0.010100965955524645 0.010213127085548092 0.010334038012023497 0.010458189785502397 0.010583545545598158 0.010709372617826644 0.010835395520925621 0.010961509095372711 0.011087670586879816 0.011213860734997751 0.011340069651131659
0.011466291546929368 0.011592522632676938 0.011718760190788914 0.011845002120409502 0.011971246695059458 0.012097492429911313 0.012223738010977326 0.012349982260566713 0.01247622412362335 0.01260246266523543 0.012728697073180934 0.012854926661756331 0.012981150874746068 0.01310736928646173 0.013233581600470322 0.013359787646052364 0.013485987372667364 0.013612180842814866 0.01373836822370933 0.013864549778166143
0.0139907258550472 0.01411689687955148 0.014243063343569319 0.014369225796254726 0.014495384834911258 0.014621541096235945 0.01474769524792322 0.01487384798059589 0.015000000000003854 0.015126152019411799 0.01525230475208445 0.015378458903771717 0.01550461516509639 0.015630774203752893 0.015756936656438257 0.01588310312045603 0.016009274144960235 0.016135450221841204 0.016261631776297917 0.01638781915719229
0.016514012627339675 0.016640212353954527 0.016766418399536413 0.016892630713544805 0.017018849125260273 0.017145073338249783 0.017271302926824928 0.01739753733477015 0.01752377587638194 0.017650017739438258 0.017776261989027306 0.017902507570092967 0.018028753304944474 0.01815499787959407 0.018281239809214284 0.0184074773673259 0.018533708453073092 0.01865993034887044 0.01878613926500399 0.018912329413121584
0.019038490904628367 0.019164604479075146 0.019290627382173853 0.019416454454402113 0.01954181021449771 0.019665961987976485 0.019786872914451845 0.01989903404447531 0.02 0.01 0.010133402376701664 0.010265444416399911 0.010393339256944207 0.010519785595324335 0.010645848945175453 0.010771862453064544 0.010897913106872839 0.011024014894028837 0.011150162291577831 0.011276346158762532
0.011402558019514283 0.01152879090957578 0.011655039285052907 0.01178129873578629 0.011907565711816899 0.012033837309811684 0.012160111119342771 0.012286385117110893 0.012412657596142893 0.012538927118990103 0.012665192486529222 0.012791452716323096 0.012917707026413164 0.013043954821873417 0.013170195682513033 0.013296429350848486 0.013422655719949887 0.013548874821066322 0.013675086811103354 0.013801291960105393
0.013927490638916691 0.014053683307180563 0.014179870501803523 0.01430605282596918 0.014432230938744031 0.014558405545276766 0.014684577387557398 0.01481074723567288 0.014936915879472188 0.015063084120536255 0.015189252764335555 0.015315422612451017 0.015441594454731648 0.015567769061264367 0.01569394717403918 0.015820129498204778 0.015946316692827665 0.016072509361091464 0.01619870803990266 0.0163249131889046
0.016451125178941508 0.0165773442800578 0.016703570649159043 0.016829804317494316 0.016956045178133723 0.017082292973593743 0.017208547283683557 0.01733480751347713 0.017461072881015945 0.017587342403862824 0.017713614882894486 0.017839888880662243 0.017966162690192956 0.018092434288187347 0.01821870126421754 0.01834496071495051 0.018471209090427248 0.01859744198048834 0.018723653841239675 0.018849837708423987
0.018975985105972593 0.019102086893128242 0.01922813754693621 0.019354151054825023 0.01948021440467593 0.01960666074305589 0.01973455558360006 0.0198665976232983 0.02 0.01 0.010100748211348038 0.01021301596675437 0.010334024222759931 0.010458079145994054 0.010583233913438751 0.010708847627068524 0.010834688180575477 0.010960661284717541 0.0110867228918109 0.011212848491392131
0.011339022111719173 0.011465232182075064 0.011591469816577337 0.011717727980634958 0.011844001007746368 0.011970284279777196 0.012096574000465972 0.012222867030913891 0.012349160769342758 0.012475453062911656 0.012601742142434065 0.012728026573061983 0.012854305215812017 0.01298057719628225 0.013106841878068643 0.013233098839263413 0.013359347851045231 0.013485588857799189 0.013611821958479426 0.013738047389090178
0.013864265506246296 0.01399047677180769 0.014116681738584975 0.014242881037098119 0.01436907536334698 0.014495265467527092 0.014621452143599894 0.014747636219605753 0.014873818548590718 0.015000000000004591 0.015126181451418454 0.0152523637804034 0.015378547856409254 0.015504734532482032 0.01563092463666212 0.015757118962910932 0.015883318261424 0.016009523228201223 0.016135734493762544 0.016261952610918545
0.01638817804152918 0.016514411142209275 0.016640652148963077 0.016766901160744717 0.01689315812193928 0.01701942280372544 0.017145694784195406 0.01727197342694516 0.017398257857572753 0.017524546937094813 0.01765083923066335 0.017777132969091853 0.0179034259995394 0.018029715720227775 0.01815599899225816 0.018282272019369102 0.018408530183426267 0.018534767817928097 0.01866097788828354 0.018787151508610152
0.018913277108190945 0.019039338715283897 0.019165311819425587 0.019291152372932205 0.019416766086561697 0.019541920854006165 0.019665975777240125 0.019786984033245608 0.019899251788651928 0.02 0.01 0.010133386960930049 0.01026559231473345 0.010393489957758318 0.010519840643879008 0.010645755955124703 0.010771611683962729 0.010897519563697874 0.011023503314530744 0.011149559551136239
0.011275677731645384 0.011401846479688546 0.011528055438999294 0.011654295684685519 0.011780559682607423 0.011906841123687444 0.012033134741485168 0.012159436147654492 0.012285741693974983 0.012412048360274599 0.012538353664382846 0.012664655589585053 0.012790952525418512 0.01291724321839972 0.013043526730081927 0.01316980240056734 0.013296069816182251 0.013422328780458405 0.01354857928786763 0.013674821499954123
0.013801055723627439 0.013927282391442992 0.01405350204372497 0.01417971531239283 0.014305922906347935 0.014432125598266616 0.014558324212634656 0.014684519614848058 0.014810712701196287 0.014936904389537686 0.015063095610472171 0.015189287298813555 0.015315480385161782 0.015441675787375164 0.015567874401743169 0.01569407709366181 0.01582028468761687 0.01594649795628467 0.01607271760856657 0.016198944276382018
0.016325178500055205 0.01645142071214157 0.016577671219550654 0.016703930183826633 0.016830197599441352 0.016956473269926546 0.01708275678160848 0.017209047474589415 0.01733534441042257 0.01746164633562441 0.017587951639732292 0.01771425830603152 0.017840563852351606 0.017966865258520502 0.018093158876317777 0.018219440317397317 0.018345704315318727 0.01847194456100446 0.01859815352031472 0.0187243222683574
0.01885044044886607 0.018976496685471113 0.019102480436303568 0.01922838831603834 0.01935424404487603 0.019480159356121414 0.01960651004224188 0.019734407685266617 0.019866613039069968 0.02 0.01 0.010100604129513774 0.010212956091983945 0.010334126782607051 0.010458247254453254 0.010583371332584501 0.010708897838051262 0.01083463070103239 0.010960497547925569 0.011086465043590102
0.011212513025278667 0.011338626453222395 0.0114647929087026 0.011591001785334433 0.011717243972185291 0.011843511668093542 0.011969798229310014 0.01209609803012828 0.01222240633565302 0.01234871918846748 0.012475033309689222 0.012601346013485953 0.012727655133347044 0.012853958958209188 0.012980256176687155 0.013106545827963863 0.01323282725822173 0.013359100081783183 0.013485364146348348 0.013611619501872457
0.013737866372724707 0.013864105132828413 0.013990336283513248 0.014116560433824482 0.014242778283038725 0.014368990605137093 0.014495198234986335 0.014621402055978837 0.014747602988883645 0.014873801981662252 0.015000000000005245 0.01512619801834824 0.015252397011126828 0.01537859794403163 0.0155048017650241 0.015631009394873302 0.015757221716971626 0.01588343956618582 0.016009663716496984 0.016135894867181734
0.01626213362728532 0.01638838049813745 0.016514635853661436 0.016640899918226447 0.01676717274178772 0.016893454172045373 0.017019743823321838 0.01714604104179952 0.01727234486666135 0.017398653986522097 0.01752496669031845 0.017651280811539796 0.017777593664353837 0.017903901969878136 0.018030201770695926 0.01815648833191191 0.01828275602781966 0.01840899821467 0.0185352070913013 0.018661373546780984
0.018787486974724196 0.01891353495641225 0.019039502452076303 0.019165369298969042 0.01929110216194977 0.01941662866741617 0.01954175274554712 0.01966587321739311 0.019787043908016066 0.019899395870486194 0.02 0.01 0.01013337949791944 0.010265727688926826 0.010393705404384184 0.010520084569952478 0.01064597752053321 0.010771775644476643 0.010897609063906381 0.011023515204806645
0.01114949895553653 0.011275554130866266 0.011401671175820536 0.011527839993542599 0.011654051002195971 0.011780295517937573 0.011906565864849448 0.012032855367891278 0.012159158295047722 0.012285469779135813 0.012411785734005679 0.0125381027722491 0.012664418127638905 0.012790729583530024 0.01291703540748013 0.01304333429191557 0.013169625300508983 0.013295907819896454 0.013422181516367785 0.013548446297177457
0.013674702276132562 0.013800949743117132 0.013927189137211034 0.01405342102305982 0.014179646070152109 0.014305865034663334 0.014432078743530828 0.01455828808043341 0.014684493973358389 0.014810697383449343 0.014936899294838121 0.015063100705172987 0.015189302616561746 0.015315506026652695 0.01544171191957764 0.015567921256480185 0.01569413496534763 0.015820353929858807 0.01594657897695105 0.016072810862799755
0.016199050256893544 0.01632529772387801 0.016451553702832994 0.016577818483642533 0.016704092180113702 0.016830374699500977 0.016956665708094155 0.017082964592529334 0.01720927041647914 0.017335581872369936 0.017461897227759395 0.017588214266002426 0.017714530220871858 0.017840841704959497 0.01796714463211546 0.01809343413515679 0.018219704482068135 0.018345948997809204 0.018472160006462023 0.018598328824183528
0.018724445869137223 0.018850501044466405 0.018976484795195755 0.019102390936095493 0.019228224355524758 0.019354022479467783 0.019479915430048164 0.01960629459561617 0.019734272311073324 0.019866620502080597 0.02 0.010000000000000002 0.010100506865079833 0.010212913348156964 0.010334228418261995 0.010458461238734498 0.010583641443833142 0.010709174260223239 0.010834879657709946 0.010960700622810456
0.011086615070828297 0.011212610066735596 0.011338674826850772 0.011464799153180298 0.011590973313387359 0.011717188210195241 0.01184343553670401 0.011969707861216893 0.0120959986495581 0.012222302244161822 0.01234861381671397 0.012474929306327381 0.01260124535113134 0.01272755921824183 0.012853868735160996 0.012980172224434955 0.013106468442629575 0.013232756524189232 0.0133590359304157 0.013485306403579185
0.013611567926015106 0.013737820683949235 0.013864065035718217 0.013990301484005202 0.014116530651683917 0.01424275326085606 0.0143689701146693 0.014495182081514593 0.014621390081217427 0.014747595072855115 0.0148737980438502 0.015000000000005837 0.015126201956161461 0.015252404927156538 0.0153786099187942 0.015504817918497005 0.015631029885342266 0.01575724673915544 0.015883469348327545 0.016009698516006192
0.016135934964293087 0.01626217931606196 0.016388432073995964 0.01651469359643176 0.01664096406959511 0.016767243475821415 0.01689353155738086 0.017019827775575244 0.017146131264848926 0.017272440781767793 0.017398754648877943 0.01752507069368154 0.017651386183294544 0.017777697755846242 0.017904001350449478 0.018030292138790174 0.018156564463302508 0.01828281178981071 0.018409026686618025 0.018535200846824508
0.018661325173153425 0.018787389933267982 0.018913384929174677 0.019039299377191947 0.01916512034229191 0.01929082573977811 0.019416358556167763 0.019541538761266044 0.019665771581738253 0.019787086651843103 0.019899493134920156 0.02 0.01 0.010133372673310197 0.010265829495307919 0.010393899073891051 0.010520354239220358 0.010646293726127572 0.010772107185674576 0.010897931364335095
0.01102381239798618 0.011149762687375714 0.011275781522198049 0.011401862967100036 0.011527999099431533 0.011654181461584083 0.011780401768690213 0.011906652270034502 0.012032925930025494 0.012159216506206032 0.012285518565267606 0.012411827461093691 0.012538139289950788 0.01266445083274575 0.01279075949099916 0.01291706322102313 0.013043360469308676 0.013169650111080214 0.013295931393219424 0.013422203882211586
0.013548467417369401 0.013674722069306354 0.013800968103437249 0.01392720594815665 0.014053436167271416 0.01417965943622545 0.014305876521644645 0.014432088263736629 0.014558295561097384 0.014684499357499999 0.014810700630264585 0.014936900379831697 0.015063099620180473 0.015189299369747583 0.01531550064251216 0.015441704438914745 0.015567911736275477 0.01569412347836741 0.01582034056378656 0.015946563832740547
0.016072794051855244 0.016199031896574553 0.016325277930705335 0.016451532582642165 0.01657779611779984 0.016704068606791845 0.016830349888930878 0.016956639530702203 0.017082936778987506 0.017209240509011205 0.01733554916726431 0.017461860710058924 0.01758817253891564 0.017714481434741303 0.0178407834938024 0.017967074069982433 0.018093347729972883 0.018219598231316587 0.018345818538422123 0.018472000900574072
0.01859813703290492 0.01872421847780624 0.01885023731262793 0.01897618760201682 0.01910206863566729 0.019227892814327237 0.019353706273873724 0.019479645760780484 0.019606100926109434 0.019734170504692294 0.01986662732668989 0.02 0.01 0.010100439088796943 0.010212881977393104 0.01033431295106202 0.010458660788416079 0.010583931000049954 0.010709522400648626 0.010835257663220589
0.010961086268400026 0.011086993066381754 0.011212970976432689 0.011339013621027388 0.011465113884229864 0.011591264046096833 0.01171745621092236 0.011843682688100566 0.011969936261008042 0.012096210353038017 0.012222499114336318 0.012348797451439558 0.012475101017533448 0.012601406176756893 0.012727709952520297 0.012854009967136891 0.012980304378017126 0.013106591814099334 0.013232871314978212 0.013359142274270005
0.01348540438806333 0.013611657608801904 0.0137379021045927 0.013864138223696882 0.013990366463813632 0.014116587445684692 0.014242801890511773 0.014369010600673521 0.014495214443243209 0.01462141433583275 0.014747611234317724 0.014873806122026998 0.0150000000000063 0.015126193877985599 0.015252388765694885 0.015378585664179843 0.015504785556769362 0.015630989399339025 0.01575719810950073 0.015883412554327757
0.016009633536198768 0.016135861776315447 0.01626209789541954 0.016388342391210228 0.016514595611948703 0.01664085772574189 0.016767128685033522 0.016893408185912208 0.017019695621994204 0.017145990032874203 0.01727229004749052 0.017398593823253615 0.01752489898247672 0.0176512025485702 0.017777500885673 0.017903789646970814 0.018030063739000256 0.018156317311907158 0.018282543789084744 0.018408735953909634
0.018534886115775917 0.018660986378977687 0.018787029023571673 0.018913006933621915 0.01903891373160297 0.01916474233678175 0.01929047759935311 0.019416068999951245 0.01954133921158466 0.01966568704893836 0.019787118022607034 0.01989956091120306 0.020000000000000004 0.01 0.010133368079368946 0.010265907729458824 0.010394062848985855 0.010520606867565578 0.010646624111532629 0.010772495820131891
0.010898357501275092 0.011024258128675695 0.011150214270947466 0.011276229227790207 0.011402300356827719 0.011528422217296498 0.011654588108545388 0.011780790917760579 0.011907023624171235 0.01203327960610745 0.012159552821999684 0.012285837905677548 0.012412130202138993 0.012538425762325589 0.012664721310636796 0.012791014195494565 0.012917302330639405 0.013043584132746408 0.013169858459278677 0.013296124549179581
0.013422381967994088 0.013548630558257366 0.01367487039544969 0.013801101749448475 0.013927325051170815 0.01405354086395976 0.014179749859196587 0.014305952795597265 0.014432150501657188 0.014558343860731663 0.01468453379827092 0.014810721270762646 0.014936907255965847 0.015063092744047166 0.01518927872925036 0.015315466201742085 0.015441656139281331 0.015567849498355789 0.015694047204415692 0.015820250140816335
0.015946459136053106 0.016072674948841993 0.01619889825056427 0.01632512960456298 0.016451369441755216 0.01657761803201839 0.016703875450832767 0.016830141540733506 0.016956415867265616 0.01708269766937241 0.017208985804517015 0.0173352786893745 0.017461574237685382 0.01758786979787162 0.017714162094332644 0.017840447178010057 0.017966720393901788 0.018092976375837424 0.018219209082247455 0.018345411891461973
0.01847157778271016 0.018597699643178187 0.01872377077221495 0.01884978572905694 0.018975741871327976 0.019101642498727874 0.019227504179870403 0.019353375888469047 0.019479393132435564 0.01960593715101485 0.01973409227054154 0.019866631920631213 0.019999999999999997 0.01 0.010100390527814045 0.010212860737398482 0.010334385625275487 0.010458839712383917 0.010584209644621652 0.010709885079116572