TITLE = "Written by meshio v4.3.8"
VARIABLES = "X", "Y"
ZONE NODES = 2883, ELEMENTS = 5548,
DATAPACKING = BLOCK, ZONETYPE = FETRIANGLE
0.01 0.02 0.02 0.01 0.01 0.010176093017278535 0.010361706572149288 0.010555021657636996 0.010752484191557762 0.010952033877312493 0.011152751472527514 0.01135416020428535 0.0115559964416306 0.011758106449967356 0.011960396826830016 0.012162808897503655 0.012365304782398872 0.012567859468058102 0.012770456117806982 0.01297308320468674
0.013175732708490689 0.013378398955190758 0.013581077855527725 0.013783766397745211 0.013986462305369561 0.014189163803814114 0.014391869459466711 0.014594578067223071 0.014797288570168161 0.014999999999999998 0.01520271142983183 0.015405421932776917 0.015608130540533276 0.015810836196185875 0.016013537694630424 0.01621623360225477 0.01641892214447226 0.016621601044809226 0.016824267291509293 0.01702691679531324
0.017229543882193 0.01743214053194188 0.01763469521760111 0.017837191102496326 0.018039603173169966 0.01824189355003263 0.018444003558369382 0.018645839795714634 0.018847248527472476 0.0190479661226875 0.019247515808442233 0.019444978342363 0.01963829342785071 0.019823906982721465 0.019999999999999997 0.01 0.01022221048806303 0.010436287211146106 0.01064314569077707 0.010846900813327528
0.011049552157839997 0.011251882845127027 0.01145417528795395 0.011656519016287436 0.01185893262913247 0.012061410912025705 0.01226394248201339 0.01246651596794026 0.012669121824534942 0.012871752563363516 0.013074402476467639 0.013277067254054482 0.01347974363339856 0.013682429115148987 0.01388512174697318 0.014087819963423577 0.014290522469265918 0.014493228154975321 0.0146959360352678 0.014898645203520302
0.015101354796479734 0.01530406396473222 0.015506771845024702 0.015709477530734123 0.01591218003657647 0.016114878253026856 0.016317570884851033 0.016520256366601444 0.016722932745945527 0.01692559752353238 0.017128247436636497 0.017330878175465064 0.017533484032059735 0.017736057517986605 0.01793858908797431 0.01814106737086754 0.01834348098371257 0.01854582471204605 0.018748117154872977 0.018950447842159997
0.01915309918667246 0.019356854309222904 0.01956371278885389 0.019777789511936962 0.020000000000000004 0.01 0.010164107076765641 0.010346724696630357 0.010543484055917459 0.01074464086813742 0.010946948652062725 0.011149506440110998 0.011352094829572156 0.011554678221044152 0.01175726193510419 0.011959854740472238 0.012162461602886919 0.012365083982996208 0.012567721293997674 0.012770372029309134
0.012973034414918453 0.013175706725175916 0.01337838740497838 0.013581075094210245 0.013783768609342195 0.013986466910618672 0.01418916906814904 0.014391874232232576 0.014594581609307235 0.014797290443120328 0.015000000000000017 0.015202709556879716 0.015405418390692824 0.01560812576776749 0.015810830931851018 0.016013533089381388 0.01621623139065786 0.016418924905789806 0.016621612595021647 0.016824293274824126
0.017026965585081592 0.017229627970690907 0.017432278706002353 0.01763491601700382 0.017837538397113113 0.018040145259527796 0.018242738064895837 0.01844532177895585 0.01864790517042784 0.018850493559888996 0.01905305134793727 0.01925535913186256 0.019456515944082525 0.019653275303369633 0.019835892923234365 0.02 0.01 0.010218536002677414 0.010431656734976123 0.010638611494393617
0.010843122217886634 0.011046652740509186 0.011249755159221815 0.011452651898196711 0.011655442736317826 0.011858177420846218 0.012060882688753136 0.01226357350309034 0.012466258353608269 0.012668942029447322 0.012871627164936278 0.013074315128297466 0.013277006538397473 0.013479701566041563 0.0136824001098394 0.013885101899292101 0.014087806555914616 0.014290513630322476 0.014493222625636131 0.01469593301314493
0.014898644243636103 0.015101355756363963 0.015304066986855146 0.015506777374363947 0.015709486369677606 0.015912193444085454 0.016114898100707983 0.016317599890160683 0.016520298433958507 0.016722993461602588 0.016925684871702595 0.01712837283506377 0.01733105797055272 0.017533741646391772 0.0177364264969097 0.0179391173112469 0.018141822579153814 0.01834455726368218 0.01854734810180329 0.01875024484077819
0.018953347259490806 0.01915687778211337 0.01936138850560638 0.019568343265023873 0.01978146399732259 0.019999999999999997 0.01 0.010162257429542493 0.010345195827922427 0.010541499531771406 0.010742483066763484 0.010944947679459954 0.011147812953123254 0.011350736622962621 0.011553624027387452 0.011756459942226159 0.011959251788929565 0.012162011131159152 0.0123647482399375 0.012567470979366552
0.012770184995834929 0.012972894198312608 0.013175601216668352 0.013378307763224911 0.013581014898244296 0.013783723219155341 0.0139864329941863 0.014189144257053421 0.014391856874932767 0.014594570598351987 0.01479728509903917 0.015000000000000032 0.01520271490096091 0.015405429401648107 0.015608143125067317 0.01581085574294665 0.016013567005813772 0.016216276780844738 0.01641898510175578 0.01662169223677516
0.01682439878333171 0.017027105801687446 0.017229815004165122 0.01743252902063348 0.017635251760062524 0.017837988868840866 0.018040748211070455 0.018243540057773858 0.018446375972612568 0.018649263377037397 0.018852187046876745 0.019055052320540035 0.01925751693323649 0.019458500468228578 0.019654804172077562 0.019837742570457503 0.02 0.01 0.010218193106915968 0.010431348561927026
0.010637888711803 0.010842139963884332 0.011045612296977413 0.011248782752219275 0.011451805354985248 0.011654736738673857 0.011857604035778437 0.01206042440889149 0.012263210487388536 0.012465971969167844 0.012668716274016546 0.012871448980840824 0.013074174198371237 0.013276894884940972 0.013479613114357504 0.013682330289181834 0.013885047307604042 0.014087764692165052 0.014290482688573598 0.014493201341893145
0.014695920556136458 0.014898640142160214 0.015101359857839902 0.015304079443863654 0.015506798658106963 0.015709517311426488 0.01591223530783503 0.016114952692396045 0.016317669710818255 0.01652038688564259 0.01672310511505911 0.016925825801628817 0.017128551019159215 0.01733128372598348 0.017534028030832188 0.017736789512611484 0.01793957559110853 0.018142395964221576 0.018345263261326145 0.018548194645014754
0.01875121724778072 0.018954387703022584 0.019157860036115644 0.019362111288196964 0.01956865143807296 0.01978180689308403 0.019999999999999997 0.01 0.010161070279269145 0.010344654766620075 0.010541246070149125 0.010742138775790177 0.010944466047494019 0.011147257767123364 0.011350174108001477 0.01155309743065598 0.011755990705619657 0.011958846470186331 0.012161667747908526 0.01236446069929977
0.012567231777641727 0.01276998669179954 0.012972730113963526 0.013175465691276764 0.013378196170663912 0.01358092355340977 0.01378364924423469 0.01398637418182328 0.014189098947928972 0.014391823856601581 0.014594549026772707 0.014797274441864941 0.015000000000000053 0.015202725558135172 0.0154054509732274 0.015608176143398513 0.015810901052071114 0.016013625818176804 0.016216350755765392 0.0164190764465903
0.016621803829336142 0.016824534308723264 0.017027269886036495 0.017230013308200468 0.017432768222358282 0.01763553930070024 0.01783833225209146 0.01804115352981365 0.018244009294380324 0.018446902569343997 0.018649825891998508 0.018852742232876626 0.019055533952505976 0.019257861224209808 0.019458753929850837 0.019655345233379886 0.019838929720730838 0.02 0.01 0.010217809098772956
0.010431274406642804 0.01063786869695564 0.010842030223764062 0.011045395823625867 0.011248492329060583 0.01145147996266749 0.011654406677064405 0.011857288672980451 0.012060134220046157 0.012262949869532346 0.01246574162057319 0.01266851488666937 0.012871274329546427 0.01307402378777533 0.013276766302542233 0.013479504201106569 0.013682239203943413 0.013884972534402238 0.014087705020030669 0.014290437181310523
0.01449316930729984 0.014695901519600258 0.014898633826947496 0.015101366173052619 0.01530409848039986 0.015506830692700252 0.015709562818689553 0.015912294979969408 0.016115027465597825 0.016317760796056634 0.01652049579889346 0.016723233697457762 0.01692597621222466 0.01712872567045355 0.017331485113330613 0.0175342583794268 0.017737050130467637 0.017939865779953816 0.018142711327019508 0.018345593322935554
0.018548520037332473 0.018751507670939378 0.018954604176374113 0.019157969776235913 0.019362131303044323 0.019568725593357164 0.019782190901227018 0.02 0.01 0.01016056139747163 0.010344223284728723 0.010541079348800858 0.01074209234237459 0.010944412451435287 0.011147151500281307 0.011350015109475949 0.011552901317990147 0.011755774845387049 0.011958625030626476 0.012161450767178091
0.012364254634976335 0.01256704041785297 0.01276981200069318 0.012972572889179287 0.013175326031254509 0.013378073788091686 0.013580817976408317 0.013783559940619227 0.01398630063301095 0.014189040691128686 0.014391780507757999 0.01459452029230701 0.014797260124222668 0.015000000000000038 0.015202739875777416 0.015405479707693069 0.015608219492242083 0.015810959308871383 0.016013699366989098 0.016216440059380794
0.0164191820235917 0.016621926211908302 0.01682467396874548 0.017027427110820698 0.01723018799930681 0.01743295958214701 0.017635745365023634 0.017838549232821875 0.018041374969373473 0.01824422515461289 0.0184470986820098 0.018649984890524007 0.018852848499718657 0.01905558754856468 0.01925790765762539 0.01945892065119913 0.019655776715271262 0.01983943860252837 0.02 0.01
0.010217460918079428 0.010431034892686089 0.010637777488639446 0.01084200971559191 0.011045375429341874 0.011248438540217542 0.011451385550177249 0.011654277246972305 0.011857134264971753 0.012059965108580433 0.012262774855327932 0.012465567587316545 0.012668346917195313 0.012871116018972914 0.013073877585249017 0.013276633813835358 0.013479386432549735 0.013682136749110336 0.013884885712469762 0.014087633976114275
0.014290381957973754 0.014493129894578377 0.014695877889009066 0.014898625953314523 0.01510137404668551 0.01530412211099098 0.015506870105421677 0.015709618042026297 0.01591236602388576 0.016115114287530242 0.016317863250889665 0.016520613567450246 0.016723366186164615 0.01692612241475097 0.017128883981027073 0.01733165308280466 0.017534432412683425 0.017737225144672027 0.01794003489141952 0.018142865735028196
0.018345722753027646 0.0185486144498227 0.01875156145978241 0.018954624570658083 0.019157990284408056 0.019362222511360525 0.019568965107313898 0.019782539081920562 0.02 0.01 0.010160336974286912 0.0103439248343391 0.010540871829330108 0.010742002119304681 0.010944385480786875 0.011147133874566471 0.011349976348292719 0.01155283045805883 0.011755672429745638 0.011958497059673778
0.01216130504863004 0.012364098867452449 0.012566881336483614 0.012769655109490111 0.012972422486572113 0.013175185361963096 0.013377945233119944 0.013580703238328197 0.013783460206049035 0.013986216706871673 0.014188973103225345 0.0143917295946123 0.014594486257727616 0.014797243081794866 0.015 0.015202756918205145 0.0154055137422724 0.015608270405387707 0.015811026896774653 0.01601378329312833
0.016216539793950963 0.016419296761671774 0.016622054766880036 0.016824814638036884 0.017027577513427865 0.017230344890509848 0.017433118663516333 0.017635901132547486 0.01783869495136991 0.018041502940326175 0.018244327570254317 0.018447169541941127 0.01865002365170724 0.018852866125433482 0.01905561451921309 0.019257997880695283 0.019459128170669884 0.0196560751656609 0.0198396630257131 0.02
0.010000000000000002 0.010217238822636436 0.010430819155846146 0.010637638652517201 0.010841945573654524 0.011045349413542243 0.011248414841130936 0.0114513421040196 0.011654205126696312 0.01185703338267208 0.012059840184572096 0.012262632599070704 0.012465415010440824 0.012668190455376947 0.012870961160711387 0.013073728789229026 0.013276494574527758 0.013479259410425834 0.013682023918798069 0.013884788504702428
0.014087553402345326 0.014290318713655319 0.014493084440707979 0.014695850513125934 0.014898616811568585 0.01510138318843143 0.015304149486874086 0.015506915559292024 0.015709681286344666 0.015912446597654655 0.016115211495297547 0.01631797608120189 0.016520740589574118 0.016723505425472213 0.016926271210770935 0.01712903883928855 0.017331809544622982 0.01753458498955911 0.017737367400929255 0.01794015981542786
0.01814296661732788 0.018345794873303654 0.018548657895980373 0.01875158515886903 0.01895465058645774 0.01915805442634545 0.019362361347482787 0.019569180844153846 0.01978276117736356 0.020000000000000004 0.01 0.010160238691745028 0.010343758402870308 0.010540718398719697 0.010741901650764612 0.010944330970900355 0.01114709802749768 0.01134993398617605 0.011552766514526386 0.011755581476741463
0.011958380289745642 0.012161167326055154 0.01236394658470851 0.012566721080605006 0.012769492937879405 0.012972263603726157 0.013175034036141913 0.013377804843474433 0.013580576383544382 0.013783348833696647 0.013986122240809098 0.014188896557533368 0.01439167166899352 0.014594447412822929 0.014797223594572613 0.015000000000000003 0.015202776405427396 0.015405552587177082 0.015608328331006479 0.015811103442466612
0.016013877759190862 0.0162166511663033 0.016419423616455563 0.016622195156525514 0.016824965963858032 0.01702773639627379 0.017230507062120533 0.017433278919394928 0.017636053415291446 0.017838832673944798 0.018041619710254315 0.018244418523258508 0.01844723348547359 0.018650066013823925 0.018852901972502313 0.01905566902909963 0.019258098349235364 0.01945928160128029 0.019656241597129677 0.019839761308254968
0.02 0.01 0.01021713543032201 0.010430701097642167 0.010637541313983945 0.010841876296174979 0.01104529629484927 0.011248359329147854 0.011451269460169925 0.011654107973361473 0.011856910836782295 0.012059695650103008 0.012262471708964776 0.012465244145679368 0.012668015830284322 0.012870788336786025 0.013073562474179286 0.013276338593769392 0.013479116772554693 0.013681896924408665
0.013884678867867381 0.014087462367336297 0.014290247157832232 0.014493032959470218 0.014695819485567795 0.014898606446824121 0.015101393553175853 0.015304180514432162 0.015506967040529734 0.015709752842167714 0.015912537632663655 0.016115321132132578 0.0163181030755913 0.016520883227445268 0.016723661406230557 0.016926437525820646 0.0171292116632139 0.0173319841697156 0.017534755854320568 0.017737528291035167
0.017940304349896952 0.018143089163217677 0.01834589202663851 0.018548730539830062 0.018751640670852124 0.01895470370515069 0.01915812370382498 0.019362458686016024 0.019569298902357805 0.019782864569677986 0.02 0.01 0.010160208515579463 0.010343701710607127 0.01054065471152579 0.010741841088676119 0.010944270435397335 0.011147027408015672 0.01134984346603122 0.011552650780669613
0.011755440234152613 0.011958216964778064 0.012160987459024126 0.012363756523003058 0.012566527100377301 0.012769300738336604 0.012972078072140895 0.01317485918869324 0.013377643869120794 0.013580431740492624 0.013783222365975194 0.013986015295361658 0.014188810090899593 0.014391606338102441 0.014594403647649957 0.014797201652143663 0.014999999999999973 0.015202798347856272 0.015405596352349976 0.015608393661897493
0.015811189909100343 0.016013984704638277 0.01621677763402474 0.01641956825950732 0.01662235613087915 0.01682514081130669 0.017027921927859034 0.017230699261663335 0.017433472899622642 0.01763624347699689 0.017839012540975824 0.018041783035221894 0.018244559765847344 0.018447349219330344 0.01865015653396874 0.018852972591984273 0.01905572956460262 0.019258158911323847 0.019459345288474178 0.019656298289392853
0.019839791484420527 0.02 0.01 0.010217133483120979 0.01043069006027877 0.010637515054593831 0.010841827629823822 0.011045218862037758 0.011248249605247188 0.01145112760908559 0.011653937456576328 0.01185671734976445 0.012059485993375706 0.012262252881925654 0.012465022735189266 0.01266779766377787 0.01287057833536812 0.013073364640054557 0.013276156078110658 0.013478951984429789
0.013681751654322092 0.013884554409478668 0.01408735962799597 0.014290166753237606 0.014492975290594012 0.014695784797591425 0.01489859487053414 0.01510140512946581 0.015304215202408511 0.01550702470940591 0.01570983324676231 0.015912640372003937 0.01611544559052126 0.01631824834567783 0.01652104801557014 0.016723843921889275 0.016926635359945378 0.017129421664631828 0.017332202336222076 0.01753497726481069
0.017737747118074305 0.01794051400662425 0.018143282650235515 0.018346062543423622 0.018548872390914354 0.018751750394752763 0.01895478113796218 0.019158172370176127 0.01936248494540612 0.0195693099397212 0.019782866516878994 0.02 0.01 0.010160229701670838 0.01034374102738151 0.010540679683088248 0.010741824686398428 0.010944200135092098 0.011146903076749553 0.011349672334185773
0.011552442996017704 0.011755206365404678 0.011957966894182765 0.01216072992728943 0.012363498972305598 0.012566275671856615 0.012769060357468926 0.01297185258291884 0.013174651510042159 0.013377456155159033 0.013580265532626137 0.013783078729781762 0.013985894938830306 0.01418871346299795 0.014391533708081938 0.014594355166216067 0.014797177395833996 0.014999999999999947 0.0152028226041659 0.015405644833783833
0.015608466291917956 0.01581128653700194 0.016014105061169577 0.016216921270218124 0.01641973446737376 0.016622543844840885 0.016825348489957773 0.017028147417081113 0.01723093964253102 0.017433724328143326 0.017636501027694367 0.01783927007271053 0.018042033105817194 0.018244793634595267 0.01844755700398223 0.01865032766581417 0.018853096923250382 0.01905579986490784 0.019258175313601522 0.019459320316911704
0.01965625897261845 0.019839770298329125 0.02 0.01 0.01021722746479274 0.010430775782399367 0.010637543496651006 0.010841775242861128 0.011045084657957154 0.011248047265112004 0.011450875699991975 0.011653653657725372 0.011856416467107332 0.012059179739664302 0.012261950245101193 0.012464730467277377 0.012667520737704233 0.012870320332809822 0.013073128070131368 0.013275942635948989
0.01347876275947589 0.013681587297067187 0.013884415263813678 0.01408724583513983 0.014290078332100543 0.014492912198498593 0.014695746974437606 0.014898582268733678 0.015101417731266172 0.015304253025562238 0.015507087801501262 0.01570992166789931 0.01591275416486002 0.016115584736186177 0.01631841270293268 0.016521237240523998 0.016724057364050936 0.01692687192986856 0.017129679667190114 0.017332479262295704
0.01753526953272257 0.017738049754898764 0.017940820260335652 0.018143583532892613 0.018346346342274576 0.018549124300007977 0.018751952734887965 0.018954915342042813 0.019158224757138825 0.01936245650334896 0.019569224217600618 0.019782772535207264 0.02 0.01 0.010160311334494559 0.010343874697449977 0.010540767859127463 0.010741805628124724 0.010944063040549287 0.011146668248596257
0.011349369490349375 0.011552099615429249 0.01175484417634828 0.011957601860400955 0.01216037328616133 0.012363158385311919 0.012565956198571948 0.012768765206233114 0.01297158366681458 0.01317440985171461 0.013377242179715455 0.013580079279281086 0.013782920004871172 0.013985763426460168 0.014188608804883221 0.01439145556072978 0.014594303241162437 0.014797151486868982 0.01499999999999992 0.015202848513130853
0.015405696758837394 0.015608544439270046 0.0158113911951166 0.016014236573539658 0.016217079995128655 0.01641992072071875 0.016622757820284415 0.016825590148285285 0.017028416333185335 0.017231234793766804 0.017434043801427972 0.01763684161468801 0.01783962671383861 0.018042398139599 0.018245155823651674 0.018447900384570722 0.018650630509650577 0.018853331751403697 0.019055936959450664 0.019258194371875238
0.01945923214087251 0.019656125302550013 0.019839688665505447 0.02 0.01 0.010217420770599134 0.010430922868458486 0.010637553756595489 0.010841628638025052 0.011044807692435415 0.0112476818591639 0.011450460501066087 0.011653218458668763 0.011855982232107995 0.012058760327769485 0.0122615543142974 0.012464363067257617 0.012667184506295684 0.012870016347526195 0.013072856436000578
0.013275702883714904 0.013478554112006956 0.013681408846014938 0.013884266085936832 0.014087125068406729 0.014289985225113079 0.014492846142246246 0.014695707522293384 0.014898569148486727 0.015101430851513097 0.015304292477706434 0.015507153857753567 0.015710014774886732 0.015912874931593057 0.016115733914062944 0.01631859115398485 0.016521445887992856 0.01672429711628492 0.016927143563999273 0.017129983652473688
0.01733281549370421 0.01753563693274228 0.017738445685702497 0.01794123967223043 0.018144017767891932 0.018346781541331163 0.018549539498933836 0.018752318140836027 0.018955192307564515 0.01915837136197487 0.01936244624340444 0.01956907713154147 0.019782579229400833 0.02 0.01 0.010160496666089135 0.010344100340100762 0.010540839298965432 0.01074165985388645 0.01094373723091269
0.011146226623642274 0.011348867784172293 0.011551578237232542 0.01175432994654399 0.011957111355694808 0.012159915937259548 0.012362738891059748 0.012565576262976356 0.0127684247295246 0.01297128153470524 0.013174144444076604 0.013377011690109554 0.013579881910339757 0.01378275408406657 0.01398562747198034 0.014188501561065511 0.014391376015564221 0.014594250633783716 0.014797125309950076 0.014999999999999892
0.01520287469004973 0.015405749366216092 0.01560862398443559 0.015811498438934285 0.016014372528019436 0.016217245915933192 0.01642011808966003 0.01662298830989024 0.016825855555923187 0.01702871846529458 0.017231575270475252 0.017434423737023527 0.01763726110894014 0.01784008406274035 0.018042888644305092 0.018245670053455915 0.01844842176276737 0.018651132215827627 0.018853773376357647 0.019056262769087215
0.019258340146113474 0.019459160701034487 0.019655899659899174 0.019839503333910827 0.020000000000000004 0.01 0.010217696386939115 0.010431006024350913 0.010637362410575132 0.010841215156252419 0.011044259339024238 0.011247070652886812 0.011449836301307532 0.0116526127456552 0.011855413183091083 0.012058237172740184 0.012261080596143654 0.012463938914843346 0.012666808144982073 0.012869685064521907
0.013072567174694039 0.013275452594588157 0.013478339948800057 0.01368122826657795 0.01388411689653661 0.014087005436198754 0.014289893674195071 0.014492781542704366 0.014695669077848264 0.014898556385980009 0.015101443614019805 0.01530433092215155 0.015507218457295451 0.01571010632580475 0.015912994563801037 0.016115883103463163 0.01631877173342182 0.01652166005119971 0.016724547405411627 0.01692743282530576
0.01713031493547792 0.01733319185501777 0.017536061085156523 0.017738919403856225 0.017941762827259705 0.018144586816908826 0.018347387254344708 0.018550163698692387 0.018752929347113114 0.01895574066097569 0.019158784843747518 0.019362637589424823 0.019568993975649047 0.019782303613060867 0.02 0.01 0.010160904953418927 0.010344362860143891 0.010540680972970885 0.010741165479643055
0.010943063712510866 0.011145485136187077 0.01134812497916845 0.011550871270754885 0.011753677580264934 0.011956521237691715 0.01215938924948295 0.012362273273461013 0.012565167617789757 0.012768068303134261 0.01297097254015482 0.01317387839752359 0.013376784573956956 0.013579690235155265 0.013782594894540402 0.013985498324715661 0.014188400490855993 0.014391301499844833 0.014594201560682198 0.014797100952838317
0.014999999999999925 0.015202899047161534 0.015405798439317643 0.015608698500155015 0.01581159950914383 0.01601450167528414 0.016217405105459392 0.01642030976484452 0.016623215426042823 0.016826121602476186 0.017029027459844998 0.01723193169686557 0.017434832382210098 0.017637726726538867 0.01784061075051694 0.018043478762308197 0.018246322419734985 0.018449128729245045 0.01865187502083149 0.01885451486381287
0.019056936287489088 0.019258834520356895 0.019459319027029076 0.019655637139856092 0.019839095046581066 0.02 0.01 0.010217903321482385 0.010430665078568012 0.010636651625387121 0.010840340978408363 0.01104334739886345 0.011246189583935962 0.011449020717567404 0.011651877084614898 0.011854760402875374 0.01205766409759884 0.012260581113846156 0.01246350583069198 0.012666434212067222
0.012869363518435682 0.013072291977183471 0.013275218512028581 0.013478142541925777 0.013681063837064073 0.013883982416974127 0.014086898478389738 0.014289812343743163 0.014492724423829664 0.014695635190102963 0.014898545153382277 0.015101454846617585 0.0153043648098969 0.015507275576170201 0.01571018765625668 0.0159131015216101 0.016116017583025707 0.016318936162935754 0.016521857458074028 0.01672478148797122
0.016927708022816335 0.017130636481564144 0.01733356578793262 0.017536494169307876 0.017739418886153723 0.017942335902401067 0.018145239597124548 0.018348122915385037 0.018550979282432545 0.018753810416064 0.018956652601136534 0.01915965902159162 0.019363348374612854 0.01956933492143196 0.019782096678517606 0.02 0.01 0.01016182605755218 0.010344427564165625 0.010539959649680266
0.010740142182950042 0.010941991183631265 0.0111444705192612 0.011347209137017257 0.01155006454884816 0.011752976587604592 0.011955916874728497 0.012158870592876287 0.012361829434918323 0.01256478858535174 0.012767745264679276 0.012970697945789068 0.01317364589611711 0.013376588895950616 0.013579527059862177 0.013782460721587607 0.013985390359030448 0.014188316545020927 0.014391239914719607 0.014594161143787764
0.014797080933469582 0.014999999999999939 0.015202919066530292 0.015405838856212111 0.015608760085280244 0.015811683454978916 0.0160146096409694 0.016217539278412234 0.016420472940137657 0.016623411104049197 0.016826354103882692 0.01702930205421075 0.017232254735320546 0.017435211414648093 0.01763817056508154 0.017841129407123596 0.018044083125271414 0.01824702341239533 0.018449935451151787 0.018652790862982705
0.018855529480738792 0.01905800881636874 0.019259857817049957 0.01946004035031973 0.01965557243583436 0.019838173942447822 0.02 0.01 0.010217583939237397 0.010429423832900108 0.010635278246060654 0.010839050424808221 0.01104219893207314 0.01124519467615618 0.01144817104135886 0.011651156764757305 0.011854151829374193 0.012057150546591386 0.012260147769433226 0.012463140039084988
0.012666125392380531 0.012869102939121956 0.013072072497200861 0.01327503433132123 0.013477988979323537 0.013680937141117186 0.013883879609472339 0.014086817227901042 0.014289750865741142 0.014492681404016728 0.014695609727957786 0.01489853672355324 0.015101463276446651 0.015304390272042109 0.015507318595983154 0.01571024913425873 0.015913182772098824 0.016116120390527518 0.01631906285888267 0.016522011020676314
0.0167249656686786 0.016927927502798975 0.017130897060877878 0.01733387460761932 0.017536859960914856 0.01773985223056662 0.01794284945340848 0.018145848170625693 0.01834884323524261 0.018551828958641096 0.01875480532384381 0.01895780106792688 0.0191609495751918 0.019364721753939357 0.019570576167099903 0.019782416060762614 0.020000000000000004 0.01 0.010163303094343136 0.010343892897126162
0.010538725275616962 0.010738851311669658 0.010940829914385324 0.011143480305958981 0.01134638204298671 0.011549378587603727 0.011752408286132455 0.011955445300970305 0.01215847825859498 0.01236150212549916 0.01256451488500178 0.012767516052597168 0.012970505951091596 0.013173485330166339 0.013376455157329454 0.013579416500971775 0.013782370465569429 0.013985318157257108 0.014188260667260514 0.014391199065787237
0.014594134401952953 0.014797067707106523 0.014999999999999946 0.015202932292893375 0.015405865598046943 0.015608800934212639 0.015811739332739355 0.016014681842742757 0.016217629534430424 0.016420583499028075 0.0166235448426704 0.016826514669833502 0.017029494048908245 0.017232483947402677 0.017435485114998067 0.017638497874500683 0.017841521741404864 0.01804455469902955 0.01824759171386743 0.0184506214123962
0.01865361795701325 0.018856519694040993 0.019059170085614655 0.019261148688330315 0.019461274724383026 0.019656107102873847 0.019836696905656873 0.02 0.01 0.010216743812475502 0.010427935448854682 0.010633952000486438 0.010837954502582752 0.01104131322262515 0.011244482270522478 0.011447596738226378 0.01165069140475011 0.011853772444155872 0.012056839376806608 0.012259891146225733
0.012462927423428078 0.0126659486235112 0.012868955667509594 0.013071949761778256 0.013274932244420138 0.01347790449088143 0.013680867861320882 0.013883823674906329 0.014086773200549161 0.014289717657226949 0.014492658219629766 0.01469559602658314 0.014898532190800529 0.015101467809199368 0.015304403973416756 0.015507341780370132 0.015710282342772934 0.015913226799450706 0.016116176325093535 0.016319132138678978
0.016522095509118425 0.016725067755579734 0.016928050238221606 0.01713104433249024 0.01733405137648862 0.01753707257657174 0.01774010885377408 0.017943160623193233 0.018146227555843993 0.018349308595249785 0.018552403261773546 0.018755517729477478 0.018958686777374806 0.019162045497417186 0.019366047999513514 0.019572064551145282 0.019783256187524488 0.02 0.01 0.010162919092995172
0.010342565993672049 0.01053770004634281 0.010738076388332324 0.01094024149878874 0.011143027549192669 0.011346028490501581 0.011549098702504432 0.0117521840638385 0.011955263845393858 0.012158330168349146 0.01236138043203458 0.01256441434744823 0.012767432681472197 0.012970436680203527 0.013173427786054718 0.013376407494219568 0.013579377280744062 0.013782338569404364 0.013985292720112223 0.014188241029205975
0.01439118473610166 0.0145941250331434 0.014797063076899937 0.01499999999999996 0.015202936923099987 0.015405874966856515 0.015608815263898245 0.015811758970793913 0.016014707279887654 0.01621766143059551 0.01642062271925582 0.01662359250578031 0.01682657221394516 0.017029563319796326 0.017232567318527625 0.01743558565255158 0.01763861956796523 0.01784166983165067 0.018044736154605997 0.018247815936161413
0.01845090129749551 0.018653971509498362 0.018856972450807263 0.019059758501211183 0.019261923611667602 0.01946229995365713 0.0196574340063279 0.0198370809070048 0.02 0.010000000000000002 0.010216743812475492 0.01042793544885467 0.010633952000486422 0.010837954502582741 0.01104131322262513 0.01124448227052246 0.01144759673822637 0.011650691404750101 0.011853772444155872 0.012056839376806617