TITLE = "Written by meshio v4.3.8"
VARIABLES = "X", "Y"
ZONE NODES = 1907, ELEMENTS = 3638,
DATAPACKING = BLOCK, ZONETYPE = FETRIANGLE
0.01 0.02 0.02 0.01 0.010208404167079127 0.010417908797345941 0.010639837430584548 0.010871703778968131 0.011110560821493799 0.011353981204512762 0.011600365069560865 0.011848706996779325 0.01209837614558764 0.012348969469176817 0.012600222898274518 0.01285195850251775 0.013104052824730053 0.013356417582825256 0.01360898766066003 0.013861713456838586
0.014114555880479218 0.014367482978036538 0.014620467574565234 0.014873485543915946 0.015126514456084053 0.015379532425434769 0.01563251702196347 0.01588544411952079 0.016138286543161424 0.01639101233933998 0.016643582417174754 0.016895947175269956 0.01714804149748226 0.01739977710172549 0.017651030530823193 0.017901623854412373 0.018151293003220687 0.018399634930439144 0.01864601879548725 0.018889439178506207
0.019128296221031873 0.019360162569415456 0.01958209120265406 0.01979159583292087 0.01 0.010226825323422154 0.010470875712986084 0.010720205575326543 0.01096993766861526 0.011219554331743715 0.011469355203611682 0.01171956985951419 0.011970273699298569 0.012221448467437107 0.012473036317531608 0.0127249698582062 0.012977185533034619 0.013229628164601085 0.013482251466516576 0.013735016989871628
0.013987892636023397 0.014240851196356595 0.014493869068957582 0.014746925169205385 0.015000000000000211 0.015253074830795044 0.015506130931042863 0.015759148803643864 0.016012107363977065 0.016264983010128835 0.01651774853348391 0.01677037183539941 0.017022814466965883 0.017275030141794313 0.0175269636824689 0.017778551532563403 0.01802972630070195 0.01828043014048634 0.018530644796388853 0.018780445668256804
0.019030062331385218 0.01927979442467383 0.01952912428701407 0.019773174676577708 0.02 0.01 0.01029521969323949 0.01056710385856016 0.010827307645968554 0.011082679141642095 0.011335990548895626 0.011588444631402798 0.01184060147384953 0.01209272743957046 0.012344943947051787 0.012597298553110451 0.012849801466648127 0.013102444837330739 0.013355212895804528 0.01360808712609263
0.013861048749221967 0.014114079776926669 0.014367163325370559 0.014620283559885155 0.014873425464706751 0.015126574535294068 0.015379716440115676 0.015632836674630286 0.01588592022307419 0.016138951250778903 0.01639191287390827 0.016644787104196392 0.016897555162670202 0.017150198533352826 0.0174027014468905 0.017655056052949175 0.01790727256043051 0.01815939852615144 0.018411555368598176 0.018664009451105322
0.01891732085835879 0.019172692354032256 0.019432896141440566 0.01970478030676111 0.02 0.01 0.010200899620567283 0.010440630159297314 0.010693455104042205 0.010948317711520666 0.011202828297338954 0.011456703182752494 0.01171009208668751 0.011963185711613077 0.012216131296792367 0.012469025908386333 0.012721927403560498 0.01297486673194046 0.013227857619550941 0.013480903298150099
0.013734000876686752 0.013987144050556245 0.014240324713243756 0.014493533873388217 0.014746762147053848 0.015000000000000584 0.015253237852947334 0.015506466126612977 0.015759675286757438 0.016012855949444963 0.016265999123314476 0.016519096701851158 0.016772142380450356 0.017025133268060863 0.01727807259644083 0.017530974091615005 0.017783868703208975 0.01803681428838825 0.018289907913313808 0.01854329681724878
0.018797171702662232 0.019051682288480372 0.019306544895958597 0.019559369840703122 0.019799100379432617 0.02 0.01 0.010282263497838721 0.010550856527614009 0.010811614948809863 0.011068901517115278 0.011324474436232333 0.01157909018052123 0.011833130423231905 0.01208681762693696 0.012340292520561154 0.012593646553372143 0.012846938745314706 0.013100206131349466 0.013353470835837941
0.013606744983707108 0.013860034094048557 0.014113339392481737 0.014366659364741427 0.014619990791756398 0.014873329442929815 0.015126670557071675 0.015380009208245093 0.015633340635260066 0.015886660607519764 0.016139965905952958 0.01639325501629442 0.016646529164163624 0.016899793868652126 0.01715306125468691 0.017406353446629483 0.017659707479440477 0.017913182373064673 0.018166869576769707 0.018420909819480337
0.01867552556376913 0.018931098482886054 0.01918838505119129 0.019449143472386896 0.019717736502161857 0.02 0.01 0.010199962744794525 0.010433952406427721 0.010683752799815855 0.01093810460059178 0.01119331618406866 0.011448350144595124 0.01170299596618864 0.011957279747733326 0.012211281300638335 0.01246507960431377 0.01271873878705453 0.012972306821441362 0.013225817888997094
0.013479295416853257 0.013732754829370383 0.013986205772886454 0.014239653822987228 0.014493101763574847 0.01474655054235166 0.015000000000000879 0.015253449457650102 0.015506898236426916 0.015760346177014543 0.016013794227115314 0.016267245170631398 0.016520704583148537 0.016774182111004732 0.017027693178560482 0.017281261212947326 0.017534920395688082 0.01778871869936351 0.018042720252268503 0.018297004033813142
0.018551649855406558 0.01880668381593289 0.019061895399409556 0.01931624720018514 0.01956604759357278 0.01980003725520538 0.02 0.01 0.010279668311409099 0.010545613543926422 0.01080491352195245 0.011061813685714315 0.011317666900733695 0.011572902206551812 0.011827695595776995 0.012082152450781628 0.012336352477542716 0.012590359791460953 0.012844225519239702 0.01309798940848024
0.013351681562350304 0.013605324243759811 0.013858933567388213 0.014112520974448659 0.014366094463151003 0.014619659595247468 0.014873220321663294 0.015126779678338666 0.015380340404754505 0.015633905536850984 0.015887479025553333 0.016141066432613788 0.016394675756242188 0.016648318437651695 0.01690201059152177 0.01715577448076232 0.017409640208541063 0.01766364752245929 0.01791784754922036 0.018172304404224952
0.01842709779345006 0.018682333099268048 0.01893818631428726 0.019195086478048885 0.01945438645607464 0.019720331688591657 0.02 0.01 0.010199476661119205 0.010432277240685347 0.010680432967116092 0.010933646777309753 0.011188387415516986 0.011443435706750403 0.011698381837855884 0.011953109591659926 0.012207609239623825 0.01246190739814829 0.01271604004129136 0.012970042151422858
0.013223944091594641 0.013477770777188708 0.013731541999595157 0.013985273178765568 0.01423897622402374 0.014492660368326572 0.01474633293012109 0.015000000000001061 0.015253667069881034 0.015507339631675561 0.015761023775978412 0.016014726821236596 0.016268458000406997 0.016522229222813437 0.016776055908407497 0.017029957848579278 0.017283959958710772 0.01753809260185383 0.01779239076037828 0.01804689040834214
0.018301618162146118 0.018556564293251487 0.018811612584484726 0.01906635322269171 0.019319567032885007 0.019567722759315252 0.019800523338880684 0.02 0.01 0.01027904189875387 0.010544190729475112 0.01080252967752843 0.011058696420509224 0.011314166652104569 0.011569321978547101 0.011824245147025656 0.01207895764523535 0.012333477778460104 0.012587829109671142 0.012842038012978431
0.013096130483854908 0.013350130165019857 0.013604057512068054 0.01385792969327834 0.014111760889759701 0.01436556278355617 0.014619345115142079 0.014873116252234177 0.015126883747768056 0.01538065488486015 0.015634437216446067 0.01588823911024254 0.0161420703067239 0.016395942487934186 0.016649869834982383 0.016903869516147318 0.017157961987023792 0.01741217089033105 0.017666522221542063 0.01792104235476678
0.018175754852976435 0.018430678021454903 0.018685833347897297 0.018941303579492447 0.019197470322473004 0.019455809270526085 0.019720958101247032 0.02 0.01 0.010199246605303683 0.010431820319504933 0.01067947328534813 0.010932039203984781 0.011186238493004494 0.011440956531193877 0.011695777090232526 0.011950536498276 0.012205173773211538 0.012459673546348747 0.012714041355974046
0.01296829180336651 0.013222442571194606 0.013476511417776614 0.013730514776972824 0.013984467242330642 0.014238381534254555 0.014492268723278667 0.014746138582435014 0.01500000000000115 0.015253861417567289 0.015507731276723629 0.015761618465747737 0.016015532757671657 0.01626948522302948 0.01652348858222568 0.016777557428807686 0.01703170819663577 0.017285958644028206 0.017540326453653474 0.01779482622679065
0.01804946350172615 0.01830422290976954 0.01855904346880806 0.018813761506997272 0.019067960796016727 0.019320526714653022 0.01956817968049569 0.019800753394696183 0.02 0.01 0.010278996722532853 0.010543930986011365 0.010801892370084986 0.011057609568597528 0.011312685418744837 0.011567570619462553 0.01182235839228967 0.01207705011780984 0.012331635001274922 0.01258610920813469
0.01284047718919642 0.013094748944814593 0.013348937235857184 0.013603055625602465 0.013857117331235102 0.01411113466910391 0.014365118888996107 0.014619080247077197 0.014873028217821355 0.01512697178218096 0.01538091975292513 0.015634881111006218 0.015888865330898425 0.016142882668767223 0.016396944374399865 0.01665106276414514 0.01690525105518773 0.01715952281080588 0.017413890791867576 0.0176683649987273
0.01792294988219232 0.018177641607712427 0.018432429380539437 0.018687314581257015 0.01894239043140415 0.01919810762991648 0.019456069013989847 0.019721003277468115 0.020000000000000004 0.01 0.010199118217993599 0.010431786225391973 0.010679351560490772 0.010931668065796953 0.01118554524117221 0.011439962829085049 0.011694558771975788 0.011949185073514676 0.012203773816653954 0.01245829347115322
0.012712731969820545 0.012967088425714169 0.013221368293593827 0.013475580344476884 0.013729734789339894 0.013983842177143792 0.014237912813264529 0.014491956519281195 0.014745982609597473 0.015000000000001157 0.015254017390404839 0.015508043480721125 0.015762087186737796 0.016016157822858527 0.016270265210662417 0.01652441965552543 0.016778631706408493 0.01703291157428814 0.01728726803018174 0.017541706528849007
0.017796226183348203 0.0180508149264874 0.018305441228026208 0.01856003717091681 0.018814454758829483 0.019068331934204513 0.01932064843951035 0.019568213774608642 0.019800881782006237 0.02 0.01 0.010279193145468322 0.010544115495123277 0.010801949167599672 0.011057456105303764 0.011312282330577053 0.011566930874116504 0.011821530838374469 0.012076098236009412 0.012330621712464178
0.012585089020427065 0.012839493567993777 0.01309383459109966 0.013348115653086329 0.013602343046071547 0.013856524544180814 0.014110668564349381 0.014364783668079662 0.014618878314542958 0.014872960784990744 0.015127039215011528 0.015381121685459319 0.015635216331922615 0.0158893314356529 0.016143475455821465 0.01639765695393072 0.016651884346915925 0.016906165408902586 0.017160506432008452 0.01741491097957513
0.01766937828753797 0.01792390176399266 0.018178469161627506 0.01843306912588536 0.01868771766942466 0.018942543894697784 0.019198050832401666 0.019455884504877858 0.019720806854532612 0.02 0.01 0.010199029576882707 0.010431919879659145 0.010679562784581063 0.010931818099524532 0.011185543663450436 0.011439769037957159 0.011694175481996302 0.011948643661703047 0.012203119266913132
0.012457573300095165 0.012711989774068653 0.012966361002899 0.013220685006307315 0.013474963668540549 0.013729201356112318 0.013983403915383916 0.014237577990574306 0.014491730596056886 0.014745868877055045 0.015000000000001077 0.015254131122947122 0.015508269403945282 0.01576242200942788 0.016016596084618275 0.016270798643889868 0.016525036331461622 0.01677931499369485 0.017033638997103147 0.017288010225933462
0.01754242669990692 0.01779688073308888 0.018051356338298866 0.01830582451800551 0.018560230962044524 0.01881445633655107 0.019068181900476728 0.0193204372154199 0.019568080120341367 0.019800970423117115 0.02 0.01 0.010279487996138155 0.010544469208838623 0.010802282332106134 0.011057704954686552 0.011312397290751142 0.011566887346869333 0.011821330888760815 0.012075763930295108
0.012330186152366902 0.012584588805461087 0.012838963817854883 0.013093306285475 0.013347614613044002 0.013601889902832546 0.013856135208984556 0.014110354885302512 0.014364554090360346 0.014618738445638104 0.014872913816986395 0.01512708618301565 0.015381261554363949 0.01563544590964172 0.015889645114699556 0.016143864791017523 0.01639811009716951 0.016652385386958037 0.01690669371452702 0.017161036182147114
0.017415411194540875 0.01766981384763501 0.01792423606970673 0.018178669111240928 0.01843311265313229 0.018687602709250337 0.018942295045314767 0.019197717667895024 0.019455530791162367 0.019720512003862715 0.019999999999999997 0.01 0.010198958638566675 0.010432107648871189 0.010679888311433303 0.01093216679912471 0.011185835406336367 0.011439954176097496 0.011694231243944664 0.011948569672691567
0.012202931164490822 0.012457296027966427 0.01271165199757552 0.012965991201334388 0.013220309144135177 0.01347460406842814 0.013728876362311342 0.013983128009345711 0.014237362118118477 0.01449158255000423 0.01474579364102647 0.015000000000000948 0.015254206358975442 0.015508417449997682 0.015762637881883437 0.01601687199065621 0.016271123637690572 0.01652539593157376 0.016779690855866707 0.017034008798667462
0.01728834800242629 0.01754270397203534 0.01779706883551088 0.018051430327310054 0.018305768756056846 0.018560045823903894 0.018814164593664865 0.01906783320087635 0.01932011168856751 0.019567892351129237 0.019801041361433163 0.02 0.01 0.01027979715718003 0.010544852914754602 0.01080268954695449 0.011058090386120292 0.011312718574196719 0.011567113889969947 0.01182144794794086
0.012075771985228516 0.012330097396638406 0.012584422750901698 0.01283874332325653 0.013093054570154293 0.013347353314418903 0.013601637995854763 0.013855908537302902 0.014110166073866478 0.014364412660204723 0.014618651004622608 0.01487288424402764 0.015127115755974066 0.015381348995379105 0.015635587339796995 0.015889833926135244 0.016144091462698816 0.01639836200414695 0.016652646685582806 0.016906945429847393
0.017161256676745118 0.017415577249099902 0.017669902603363135 0.01792422801477297 0.01817855205206052 0.01843288611003134 0.018687281425804454 0.01894190961388075 0.019197310453046408 0.019455147085246163 0.019720202842820667 0.019999999999999997 0.01 0.010198900224431554 0.010432289876783888 0.010680214322920963 0.010932547155144816 0.011186206320929959 0.011440272035498862 0.011694469374517931
0.011948716265341861 0.01220298678961077 0.012457270447629207 0.012711560796545859 0.012965852794707201 0.013220142461186754 0.013474426962152966 0.013728704644314204 0.013982974952171929 0.014237238266849995 0.014491495711136178 0.014745748949994697 0.015000000000000731 0.015254251050006763 0.01550850428886529 0.015762761733151484 0.016017025047829564 0.016271295355687297 0.016525573037848525 0.016779857538814714
0.01703414720529425 0.017288439203455557 0.017542729552372165 0.017797013210390546 0.018051283734659373 0.018305530625483207 0.01855972796450218 0.018813793679070958 0.019067452844855948 0.019319785677079607 0.01956771012321641 0.019801099775568314 0.02 0.01 0.010280065652508944 0.010545187310156624 0.010803060149423614 0.011058467072748959 0.01131306951073312 0.01156741264538691
0.0118216772477825 0.012075924498980107 0.01233017465752492 0.012584433069254955 0.012838699401019482 0.013092971302107004 0.013347246024950942 0.013601521174843572 0.013855795026120582 0.01411006660221455 0.014364335625277594 0.014618602396774502 0.014872867644533704 0.015127132355467518 0.015381397603226713 0.015635664374723638 0.015889933397786705 0.01614420497388069 0.016398478825157707 0.016652753975050328
0.016907028697894243 0.01716130059898173 0.01741556693074623 0.01766982534247622 0.01792407550102097 0.018178322752218496 0.018432587354613984 0.018686930489267676 0.01894153292725174 0.019196939850576984 0.019454812689843892 0.019719934347491544 0.020000000000000004 0.01 0.010198855597102976 0.010432434495964961 0.010680478032390946 0.010932866502248291 0.011186535558574042 0.011440578410032947
0.011694730638440358 0.011948919485273905 0.012203127259628518 0.012457350253079053 0.012711587064610055 0.012965835877543368 0.013220094290362342 0.013474359716631235 0.013728629773165808 0.013982902522316614 0.01423717656999419 0.014491451054570779 0.014745725562663906 0.015000000000000489 0.015254274437337076 0.015508548945430209 0.015762823430006814 0.016017097477684403 0.016271370226835218 0.016525640283369794
0.016779905709638672 0.017034164122457625 0.017288412935390917 0.01754264974692189 0.017796872740372387 0.018051080514726932 0.018305269361560402 0.018559421589967713 0.018813464441426536 0.019067133497752197 0.01931952196760942 0.019567565504035222 0.019801144402896917 0.019999999999999997 0.01 0.010280259482920018 0.010545428026323293 0.010803332694655937 0.011058753379144737 0.011313348599620146
0.011567665788880209 0.011821890748026495 0.012076090563848807 0.012330291144169638 0.012584502572807861 0.012838728017618622 0.013092967325182137 0.013347218758437163 0.013601479964694707 0.01385574854035009 0.014110022340769909 0.01436429961528892 0.014618579021224109 0.014872859556806312 0.015127140443194386 0.015381420978776596 0.015635700384711796 0.01588997765923083 0.01614425145965067 0.016398520035306063
0.016652781241563604 0.01690703267481862 0.017161271982382136 0.017415497427192866 0.01766970885583104 0.01792390943615183 0.01817810925197409 0.01843233421112032 0.018686651400380318 0.018941246620855667 0.01919666730534441 0.019454571973677 0.019719740517080277 0.019999999999999997 0.01 0.010198827455923135 0.010432525621566916 0.010680646288818771 0.010933074292577982 0.01118675552986658
0.011440790460682916 0.011694920427352162 0.011949077800428667 0.012203249537724094 0.012457435952984694 0.01271163885235373 0.012965858701392484 0.013220094460384618 0.013474344084976045 0.013728605070504234 0.013982874865068273 0.014237151123411956 0.014491431820988056 0.014745715260075924 0.015000000000000213 0.0152542847399245 0.015508568179012376 0.01576284887658849 0.0160171251349322 0.01627139492949626
0.016525655915024477 0.016779905539615905 0.017034141298608033 0.01728836114764678 0.017542564047015777 0.01779675046227634 0.018050922199571724 0.018305079572648205 0.018559209539317428 0.01881324447013371 0.01906692570742226 0.01931935371118141 0.019567474378433175 0.019801172544076814 0.02 0.01 0.01028036024771263 0.010545552787972678 0.010803475499798926 0.011058905845307014
0.011313500348762724 0.011567807193534774 0.011822014410874972 0.01207619183796127 0.012330368105040148 0.01258455567559065 0.012838759579766294 0.013092980939208132 0.013347218718343073 0.013601470764037865 0.01385573447160189 0.014110007201058638 0.01436428650691185 0.014618570227071623 0.014872856469540311 0.015127143530459857 0.015381429772928548 0.015635713493088333 0.01588999279894157 0.01614426552839834
0.016398529235962384 0.016652781281657196 0.016907019060792148 0.017161240420233984 0.017415444324409616 0.017669631894960104 0.017923808162038958 0.018177985589125246 0.01843219280646543 0.01868649965123746 0.018941094154693153 0.019196524500201203 0.019454447212027444 0.019719639752287486 0.02 0.01 0.010198817836524066 0.010432556576124604 0.010680703810758438 0.010933145968163006
0.011186832276726427 0.011440865518296475 0.011694988870184213 0.01194913634224297 0.012203296394106309 0.012457470663300822 0.012711662041686046 0.012965871800154289 0.013220099413072586 0.01347434307890446 0.013728600306051074 0.013982868376999032 0.014237144652601235 0.014491426729300913 0.014745712478439903 0.014999999999999965 0.01525428752156003 0.015508573270699036 0.01576285534739872 0.016017131623000943
0.016271399693948925 0.016525656921095557 0.01677990058692743 0.017034128199845733 0.017288337958313978 0.01754252933669921 0.017796703605893745 0.01805086365775708 0.018305011129815817 0.018559134481703533 0.01881316772327357 0.019066854031837 0.01931929618924157 0.019567443423875407 0.01980118216347595 0.02 0.009999999999999998 0.010280360247712509 0.010545552787972553 0.010803475499798784
0.01105890584530684 0.011313500348762532 0.011567807193534563 0.011822014410874753 0.01207619183796104 0.012330368105039907 0.012584555675590399 0.01283875957976604 0.01309298093920788 0.01334721871834283 0.013601470764037615 0.01385573447160164 0.01411000720105839 0.014364286506911612 0.01461857022707139 0.01487285646954008 0.01512714353045963 0.015381429772928331 0.015635713493088118 0.015889992798941342
0.016144265528398125 0.01639852923596215 0.01665278128165696 0.016907019060791905 0.017161240420233755 0.01741544432440941 0.017669631894959927 0.017923808162038805 0.018177985589125093 0.01843219280646528 0.018686499651237306 0.01894109415469301 0.01919652450020109 0.01945444721202734 0.019719639752287393 0.02 0.010000000000000002 0.010198827455923182 0.010432525621566805 0.01068064628881856
0.010933074292577694 0.011186755529866244 0.011440790460682533 0.011694920427351742 0.011949077800428223 0.01220324953772363 0.012457435952984212 0.012711638852353248 0.012965858701392007 0.013220094460384132 0.013474344084975552 0.01372860507050374 0.013982874865067777 0.014237151123411472 0.014491431820987588 0.014745715260075452 0.01499999999999975 0.015254284739924039 0.015508568179011922 0.015762848876588048
0.01601712513493174 0.0162713949294958 0.016525655915024 0.016779905539615437 0.017034141298607582 0.01728836114764635 0.01754256404701538 0.017796750462275992 0.01805092219957141 0.018305079572647914 0.018559209539317136 0.018813244470133463 0.019066925707422053 0.01931935371118127 0.01956747437843311 0.019801172544076876 0.02 0.009999999999999998 0.010280259482919689 0.010545428026322943
0.010803332694655526 0.011058753379144252 0.011313348599619593 0.011567665788879598 0.01182189074802584 0.012076090563848122 0.012330291144168925 0.01258450257280714 0.012838728017617897 0.013092967325181415 0.013347218758436431 0.013601479964693962 0.013855748540349336 0.01411002234076915 0.01436429961528818 0.014618579021223384 0.014872859556805592 0.01512714044319368 0.015381420978775893 0.0156357003847111
0.01588997765923012 0.016144251459649955 0.01639852003530535 0.016652781241562883 0.016907032674817912 0.01716127198238144 0.017415497427192225 0.01766970885583045 0.017923909436151287 0.018178109251973603 0.018432334211119877 0.01868665140037992 0.018941246620855313 0.019196667305344094 0.01945457197367673 0.019719740517080007 0.02 0.009999999999999998 0.010198855597103082 0.010432434495964746
0.01068047803239052 0.010932866502247724 0.01118653555857335 0.01144057841003216 0.011694730638439512 0.011948919485273003 0.012203127259627576 0.012457350253078099 0.0127115870646091 0.012965835877542398 0.013220094290361362 0.013474359716630241 0.013728629773164807 0.01398290252231561 0.014237176569993192 0.014491451054569804 0.01474572556266294 0.014999999999999533 0.015254274437336134 0.015508548945429253
0.015762823430005853 0.016017097477683442 0.016271370226834263 0.016525640283368826 0.016779905709637714 0.0170341641224567 0.017288412935390022 0.017542649746921043 0.017796872740371606 0.018051080514726224 0.01830526936155976 0.01855942158996717 0.01881346444142605 0.01906713349775178 0.019319521967609103 0.01956756550403506 0.019801144402897007 0.02 0.01 0.0102800656525084
0.01054518731015604 0.010803060149422922 0.011058467072748147 0.011313069510732188 0.01156741264538588 0.011821677247781407 0.012075924498978962 0.01233017465752374 0.012584433069253756 0.012838699401018267 0.013092971302105775 0.01334724602494971 0.013601521174842337 0.01385579502611935 0.01411006660221332 0.014364335625276385 0.014618602396773303 0.014872867644532514 0.015127132355466335 0.015381397603225547
0.01563566437472246 0.015889933397785515 0.016144204973879493 0.016398478825156517 0.016652753975049145 0.01690702869789308 0.017161300598980602 0.01741556693074513 0.017669825342475173 0.017924075501019994 0.01817832275221761 0.01843258735461321 0.018686930489266996 0.018941532927251144 0.01919693985057648 0.01945481268984345 0.01971993434749111 0.02 0.01 0.010198900224431694
0.010432289876783558 0.01068021432292032 0.010932547155143956 0.011186206320928937 0.011440272035497709 0.011694469374516674 0.011948716265340529 0.012202986789609398 0.012457270447627806 0.012711560796544431 0.012965852794705763 0.013220142461185299 0.013474426962151509 0.013728704644312749 0.013982974952170489 0.014237238266848556 0.014491495711134748 0.014745748949993278 0.014999999999999325 0.01525425105000536
0.015508504288863877 0.015762761733150065 0.016017025047828138 0.016271295355685864 0.01652557303784711 0.01677985753881332 0.017034147205292876 0.01728843920345423 0.017542729552370878 0.01779701321038933 0.018051283734658252 0.018305530625482205 0.018559727964501272 0.018813793679070163 0.01906745284485529 0.019319785677079114 0.019567710123216137 0.01980109977556842 0.02 0.01
0.010279797157179285 0.010544852914753777 0.010802689546953528 0.01105809038611916 0.011312718574195439 0.011567113889968554 0.011821447947939377 0.012075771985226962 0.012330097396636812 0.01258442275090007 0.012838743323254874 0.013093054570152623 0.013347353314417226 0.013601637995853086 0.01385590853730123 0.014110166073864816 0.014364412660203075 0.014618651004620963 0.014872884244026012 0.015127115755972441
0.015381348995377476 0.015635587339795354 0.015889833926133603 0.016144091462697175 0.016398362004145316 0.01665264668558118 0.016906945429845784 0.01716125667674356 0.017415577249098386 0.017669902603361702 0.01792422801477161 0.01817855205205928 0.018432886110030203 0.018687281425803417 0.01894190961387984 0.01919731045304561 0.019455147085245483 0.019720202842820028 0.02 0.01
0.010198958638566841 0.01043210764887073 0.010679888311432446 0.010932166799123573 0.01118583540633502 0.011439954176095996 0.011694231243943051 0.01194856967268986 0.012202931164489053 0.012457296027964623 0.012711651997573688 0.012965991201332532 0.013220309144133307 0.013474604068426274 0.013728876362309482 0.013983128009343855 0.014237362118116636 0.014491582550002397 0.01474579364102465 0.014999999999999139
0.015254206358973624 0.015508417449995862 0.01576263788188161 0.016016871990654376 0.01627112363768873 0.01652539593157194 0.016779690855864917 0.017034008798665703 0.017288348002424583 0.017542703972033696 0.01779706883550932 0.018051430327308583 0.018305768756055482 0.01856004582390265 0.01881416459366377 0.019067833200875413 0.0193201116885668 0.01956789235112888 0.019801041361433326 0.02
0.01 0.010279487996137236 0.010544469208837571 0.010802282332104899 0.011057704954685128 0.011312397290749553 0.01156688734686761 0.011821330888758984 0.012075763930293207 0.01233018615236494 0.012584588805459087 0.012838963817852853 0.013093306285472953 0.013347614613041965 0.013601889902830516 0.01385613520898252 0.0141103548853005 0.014364554090358344 0.014618738445636117 0.014872913816984423
0.01512708618301368 0.015381261554361984 0.015635445909639747 0.01588964511469758 0.01614386479101554 0.016398110097167545 0.0166523853869561 0.016906693714525106 0.017161036182145244 0.017415411194539054 0.017669813847633234 0.01792423606970502 0.01817866911123932 0.018433112653130804 0.018687602709248984 0.01894229504531358 0.01919771766789399 0.019455530791161496 0.01972051200386193 0.02
0.01 0.01019902957688288 0.010431919879658573 0.010679562784580003 0.010931818099523146 0.01118554366344881 0.011439769037955362 0.01169417548199438 0.01194864366170103 0.012203119266911039 0.012457573300093025 0.012711989774066476 0.0129663610028968 0.013220685006305122 0.013474963668538367 0.013729201356110146 0.013983403915381753 0.014237577990572167 0.01449173059605477 0.014745868877052938
0.014999999999998976 0.015254131122945023 0.015508269403943193 0.0157624220094258 0.016016596084616197 0.016270798643887797 0.01652503633145958 0.016779314993692826 0.017033638997101155 0.017288010225931516 0.017542426699905002 0.01779688073308703 0.018051356338297086 0.018305824518003826 0.01856023096204296 0.01881445633654968 0.019068181900475576 0.019320437215419022 0.019568080120340905 0.019800970423117282
0.02 0.01 0.010279193145467307 0.010544115495122058 0.010801949167598227 0.011057456105302102 0.0113122823305752 0.011566930874114506 0.011821530838372358 0.012076098236007212 0.012330621712461909 0.012585089020424765 0.012839493567991456 0.013093834591097343 0.013348115653084022 0.013602343046069257 0.01385652454417854 0.014110668564347124 0.014364783668077426 0.014618878314540729
0.01487296078498853 0.01512703921500932 0.015381121685457124 0.01563521633192042 0.015889331435650723 0.016143475455819307 0.016397656953928575 0.016651884346913812 0.016906165408900508 0.017160506432006416 0.01741491097957312 0.017669378287536005 0.01792390176399075 0.018178469161625674 0.018433069125883626 0.018687717669423065 0.01894254389469634 0.01919805083240042 0.019455884504876793 0.019720806854531737
0.02 0.01 0.010199118217993772 0.010431786225391326 0.010679351560489575 0.010931668065795395 0.011185545241170393 0.011439962829083047 0.011694558771973632 0.01194918507351242 0.012203773816651612 0.012458293471150832 0.01271273196981814 0.01296708842571176 0.013221368293591431 0.013475580344474512 0.013729734789337545 0.01398384217714147 0.01423791281326222 0.014491956519278903
0.01474598260959519 0.014999999999998886 0.015254017390402585 0.015508043480718882 0.015762087186735566 0.016016157822856307 0.016270265210660217 0.01652441965552325 0.016778631706406328 0.01703291157428602 0.017287268030179635 0.017541706528846953 0.01779622618334623 0.01805081492648549 0.01830544122802436 0.018560037170915082 0.01881445475882791 0.01906833193420314 0.0193206484395093 0.01956821377460807
0.019800881782006396 0.02 0.01 0.010278996722531828 0.010543930986010079 0.01080189237008345 0.011057609568595757 0.011312685418742864 0.011567570619460427 0.011822358392287404 0.012077050117807476 0.012331635001272497 0.01258610920813223 0.012840477189193952 0.013094748944812145 0.013348937235854761 0.01360305562560006 0.01385711733123273 0.01411113466910156 0.014365118888993772