TITLE = "Written by meshio v4.3.8"
VARIABLES = "X", "Y"
ZONE NODES = 945, ELEMENTS = 1768,
DATAPACKING = BLOCK, ZONETYPE = FETRIANGLE
0.01 0.02 0.02 0.01 0.01 0.01035738678544106 0.010710120112115846 0.011062021541327382 0.011414003769158777 0.011767372715876825 0.01212246137815182 0.01247915419480416 0.012837185989701246 0.013196274564490008 0.013556167745671643 0.013916652763798196 0.014277551625601403 0.014638712391687698 0.015000000000000043 0.01536128760831239
0.015722448374398696 0.01608334723620191 0.016443832254328473 0.01680372543551012 0.017162814010298885 0.017520845805195973 0.017877538621848307 0.0182326272841233 0.018585996230841326 0.018937978458672698 0.01928987988788421 0.01964261321455897 0.02 0.010274294018411454 0.010571829347336234 0.01089563350029541 0.011235880482677759 0.011585164647376543 0.011939293283649656 0.012296119597187545
0.012654567515074386 0.013014075307171122 0.013374320904984232 0.013735095456811671 0.014096246267497 0.01445765030682493 0.014819200784032689 0.015180799215967423 0.01554234969317519 0.015903753732503117 0.01626490454318844 0.01662567909501587 0.01698592469282898 0.01734543248492573 0.017703880402812573 0.018060706716350468 0.018414835352623567 0.018764119517322334 0.019104366499704657 0.019428170652663803
0.019725705981588553 0.01 0.010324301132444915 0.010672669372049337 0.011029993902644426 0.01138908562028746 0.011748704820354349 0.012108723660319886 0.012469142703954784 0.012829943206694311 0.01319108496534139 0.013552516719832281 0.013914182361353045 0.014276023869523301 0.014637982636518896 0.015000000000000062 0.015362017363481226 0.015723976130476824 0.016085817638647082 0.016447483280167836
0.016808915034658714 0.01717005679330578 0.017530857296045317 0.01789127633968023 0.018251295179645754 0.018610914379712618 0.018970006097355642 0.01932733062795071 0.019675698867555085 0.019999999999999997 0.009999999999999998 0.010423927732308061 0.01081378447345639 0.011187450555609997 0.011554427728046202 0.011918628944457568 0.012281657380423028 0.012644204580396506 0.013006581658929374 0.013368930277937695
0.013731311096932918 0.014093743328048945 0.014456223859666318 0.014818737410635887 0.015181262589364244 0.015543776140333799 0.01590625667195117 0.016268688903067194 0.0166310697220624 0.016993418341070706 0.017355795419603585 0.01771834261957707 0.018081371055542545 0.018445572271953887 0.018812549444390064 0.019186215526543676 0.019576072267692007 0.02 0.010000000000000002 0.010288149172488872
0.010633611091967329 0.010997073787617115 0.011363251314638617 0.011728853079486967 0.012093563740544084 0.012457598513120088 0.012821195322189706 0.013184529211143601 0.013547714877808205 0.013910822843882778 0.014273893832391202 0.014636949448961963 0.015000000000000064 0.015363050551038154 0.01572610616760892 0.01608917715611733 0.0164522851221919 0.016815470788856503 0.017178804677810387 0.017542401486880008
0.017906436259456013 0.018271146920513136 0.01863674868536147 0.019002926212382944 0.01936638890803271 0.019711850827511125 0.02 0.01 0.010407291755535925 0.010793651995532344 0.011168261055667247 0.011537761629969811 0.011904752531670136 0.012270377558208187 0.012635198271231086 0.012999521736892113 0.01336353098515095 0.013727341500418396 0.01409102858464145 0.01445464250604754
0.01481821812570903 0.015181781874291108 0.015545357493952583 0.015908971415358655 0.01627265849958171 0.01663646901484916 0.01700047826310798 0.017364801728769 0.017729622441791902 0.01809524746832996 0.018462238370030287 0.018831738944332828 0.019206348004467702 0.019592708244464102 0.019999999999999997 0.01 0.01028707677564913 0.010624945688245426 0.010984803130529503 0.01135053141653801
0.011717164121983903 0.012083403147324851 0.012449052293269914 0.012814192066573412 0.013178946081149594 0.013543423363550274 0.013907709339292107 0.014271869007010293 0.014635952407556498 0.015000000000000072 0.015364047592443659 0.01572813099298984 0.016092290660708008 0.016456576636449827 0.01682105391885051 0.017185807933426677 0.01755094770673017 0.01791659685267524 0.018282835878016174 0.018649468583462062
0.019015196869470542 0.0193750543117546 0.019712923224350868 0.020000000000000004 0.01 0.010403838615275343 0.010786684235323172 0.011159586020393141 0.011528768569240795 0.011896276518739785 0.012262813390151736 0.012628697803644135 0.012994116699162702 0.013359198304144355 0.013724037525547721 0.014088707464840686 0.0144532662774098 0.014817762205972909 0.01518223779402724 0.015546733722590337
0.015911292535159445 0.016275962474452406 0.01664080169585575 0.01700588330083739 0.017371302196355947 0.01773718660984835 0.018103723481260287 0.018471231430759252 0.018840413979606896 0.019213315764676865 0.019596161384724673 0.02 0.01 0.010286471445613137 0.010622611927291003 0.010980247194819966 0.011344600454335548 0.011710784312704762 0.01207721098637181 0.01244340366321128
0.012809266200424638 0.013174823598058081 0.013540132670881697 0.013905253132307397 0.014270239576409795 0.01463514055216553 0.015000000000000057 0.015364859447834592 0.01572976042359033 0.016094746867692727 0.016459867329118423 0.01682517640194201 0.017190733799575454 0.017556596336788806 0.01792278901362826 0.018289215687295288 0.018655399545664475 0.019019752805180055 0.019377388072709015 0.019713528554386864
0.02 0.01 0.010402835803838733 0.010784507087047038 0.01115614324833654 0.0115244725822669 0.011891639495296882 0.012258249453665179 0.012624481619065084 0.012990414323486703 0.013356104477877995 0.013721603324085981 0.014086958458962849 0.014452213995150063 0.01481741108358801 0.015182588916412108 0.01554778600485005 0.015913041541037256 0.01627839667591411 0.016643895522122094
0.01700958567651337 0.017375518380934984 0.017741750546334898 0.01810836050470317 0.01847552741773315 0.018843856751663498 0.019215492912952985 0.01959716419616129 0.02 0.01 0.01028618036883276 0.010621788036074532 0.010978624711774238 0.01134211494130763 0.011707683253292902 0.012073832001017665 0.012440042985085472 0.012806140430533446 0.013172078240733728 0.013537860937582793
0.013903512548868154 0.014269064113823133 0.014634548768058626 0.015000000000000053 0.015365451231941479 0.015730935886176956 0.016096487451131923 0.01646213906241726 0.01682792175926633 0.017193859569466608 0.017559957014914578 0.017926167998982386 0.018292316746707137 0.018657885058692404 0.019021375288225787 0.019378211963925498 0.01971381963116726 0.02 0.01 0.010402502591173212
0.010783734530931056 0.011154827509589306 0.011522601963726993 0.011889360473070572 0.012255775368747947 0.012622017531786269 0.012988124426717587 0.013354108504663236 0.013719983728361643 0.014085769350537439 0.014451488680744794 0.014817167441268679 0.015182832558731409 0.015548511319255288 0.015914230649462634 0.0162800162716384 0.0166458914953368 0.017011875573282462 0.01737798246821378 0.0177442246312521
0.01811063952692948 0.018477398036273043 0.018845172490410712 0.019216265469068954 0.0195974974088268 0.02 0.01 0.010286034662126608 0.01062147272767259 0.010978009866896373 0.011341114226458416 0.011706299901393644 0.012072168083130611 0.012438246242527054 0.012804358423174067 0.013170435129648399 0.0135364515557853 0.013902404614055676 0.014268302926077989 0.014634161747333275
0.015000000000000029 0.01536583825266678 0.015731697073922055 0.016097595385944356 0.016463548444214708 0.016829564870351615 0.017195641576825946 0.017561753757472966 0.017927831916869405 0.01829370009860637 0.018658885773541602 0.019021990133103635 0.01937852727232741 0.019713965337873382 0.019999999999999997 0.01 0.010402404913281092 0.010783463544875563 0.011154326454423628 0.011521833909131689
0.011888339690200945 0.012254573564229184 0.012620736646995742 0.012986869023104614 0.013352969363557085 0.013719031905263978 0.01408505616996102 0.014451048068304544 0.014817018518297401 0.01518298148170263 0.015548951931695483 0.01591494383003899 0.016280968094736014 0.016647030636442905 0.017013130976895365 0.01737926335300424 0.017745426435770803 0.01811166030979905 0.018478166090868307 0.018845673545576373
0.01921653645512444 0.019597595086718912 0.019999999999999997 0.01 0.010285964967896855 0.010621358760431507 0.010977787708718486 0.011340732711174879 0.011705737779881573 0.012071443044399036 0.012437411323287004 0.012803484781471855 0.013169595109381638 0.01353570809530473 0.013901806944828007 0.014267886145788338 0.014633948028575325 0.015000000000000003 0.015366051971424674 0.015732113854211645
0.01609819305517196 0.016464291904695238 0.01683040489061832 0.017196515218528097 0.017562588676712954 0.017928556955600937 0.018294262220118408 0.01865926728882511 0.019022212291281516 0.019378641239568506 0.019714035032103148 0.019999999999999997 0.01 0.010402384796262817 0.010783383003269753 0.011154160462604992 0.011521562517095648 0.011887958446824148 0.012254099859923264 0.012620206979918168
0.01298632908844605 0.013352464347938704 0.0137186004308901 0.014084727846004964 0.014450843253887999 0.014816948970272132 0.015183051029727822 0.01554915674611196 0.01591527215399499 0.01628139956910986 0.016647535652061268 0.01701367091155391 0.017379793020081784 0.017745900140076692 0.018112041553175817 0.01847843748290434 0.018845839537395 0.019216616996730242 0.019597615203737182 0.02
0.01 0.010285944159720235 0.010621331049316243 0.010977733522769798 0.01134063541327165 0.011705588467578066 0.012071243052648093 0.012437172604235784 0.012803227095067591 0.013169341071900209 0.013535478968939724 0.013901620238551559 0.01426775477015724 0.014633880314852722 0.014999999999999984 0.01536611968514725 0.015732245229842727 0.016098379761448407 0.016464521031060247 0.01683065892809977
0.01719677290493238 0.017562827395764178 0.017928756947351868 0.01829441153242191 0.018659364586728334 0.019022266477230192 0.019378668950683745 0.019714055840279774 0.020000000000000004 0.010000000000000002 0.010402384796262818 0.010783383003269748 0.011154160462604997 0.011521562517095654 0.011887958446824158 0.012254099859923285 0.012620206979918185 0.01298632908844607 0.01335246434793872 0.013718600430890114
0.014084727846004973 0.01445084325388801 0.014816948970272144 0.015183051029727836 0.015549156746111981 0.01591527215399501 0.016281399569109872 0.01664753565206128 0.017013670911553935 0.017379793020081816 0.017745900140076716 0.018112041553175834 0.018478437482904352 0.018845839537395014 0.01921661699673024 0.019597615203737172 0.02 0.01 0.010285964967896858 0.010621358760431503
0.010977787708718484 0.011340732711174889 0.011705737779881587 0.012071443044399064 0.012437411323287047 0.012803484781471901 0.013169595109381689 0.013535708095304775 0.013901806944828045 0.014267886145788364 0.014633948028575332 0.015000000000000005 0.015366051971424679 0.015732113854211645 0.016098193055171958 0.016464291904695234 0.01683040489061833 0.01719651521852813 0.017562588676712978 0.01792855695560095
0.01829426222011841 0.01865926728882511 0.01902221229128151 0.019378641239568496 0.01971403503210315 0.02 0.009999999999999998 0.010402404913281094 0.010783463544875572 0.01115432645442364 0.011521833909131701 0.011888339690200955 0.01225457356422921 0.012620736646995777 0.012986869023104643 0.01335296936355712 0.01371903190526402 0.014085056169961058 0.014451048068304552 0.014817018518297403
0.015182981481702636 0.015548951931695485 0.01591494383003899 0.016280968094736024 0.016647030636442905 0.017013130976895368 0.017379263353004246 0.017745426435770807 0.018111660309799046 0.018478166090868286 0.018845673545576352 0.019216536455124417 0.019597595086718895 0.02 0.009999999999999998 0.010286034662126626 0.01062147272767262 0.010978009866896399 0.011341114226458428 0.01170629990139366
0.012072168083130625 0.012438246242527073 0.012804358423174098 0.01317043512964843 0.013536451555785345 0.013902404614055707 0.014268302926078006 0.014634161747333271 0.015000000000000022 0.015365838252666771 0.01573169707392204 0.016097595385944335 0.016463548444214698 0.01682956487035159 0.01719564157682593 0.017561753757472952 0.017927831916869405 0.01829370009860635 0.018658885773541568 0.019021990133103607
0.01937852727232739 0.019713965337873396 0.02 0.01 0.010402502591173217 0.010783734530931085 0.011154827509589339 0.01152260196372702 0.011889360473070591 0.012255775368747971 0.012622017531786293 0.012988124426717611 0.013354108504663263 0.013719983728361668 0.014085769350537444 0.014451488680744794 0.014817167441268672 0.015182832558731386 0.01554851131925527 0.01591423064946262
0.016280016271638387 0.016645891495336778 0.017011875573282435 0.01737798246821375 0.017744224631252067 0.01811063952692944 0.018477398036273004 0.018845172490410685 0.01921626546906893 0.01959749740882677 0.02 0.01 0.010286180368832764 0.01062178803607455 0.010978624711774276 0.011342114941307678 0.011707683253292939 0.012073832001017701 0.012440042985085505 0.012806140430533465
0.013172078240733746 0.013537860937582816 0.013903512548868157 0.014269064113823136 0.014634548768058617 0.015000000000000041 0.01536545123194146 0.015730935886176935 0.016096487451131906 0.016462139062417246 0.016827921759266312 0.017193859569466587 0.017559957014914546 0.017926167998982345 0.018292316746707102 0.01865788505869236 0.019021375288225752 0.019378211963925467 0.01971381963116724 0.02
0.009999999999999998 0.010402835803838734 0.010784507087047058 0.011156143248336576 0.01152447258226693 0.011891639495296914 0.012258249453665203 0.012624481619065105 0.01299041432348671 0.013356104477877991 0.013721603324085965 0.014086958458962838 0.014452213995150051 0.01481741108358799 0.015182588916412087 0.015547786004850015 0.015913041541037228 0.016278396675914113 0.016643895522122084 0.017009585676513346
0.017375518380934943 0.01774175054633484 0.018108360504703113 0.018475527417733093 0.018843856751663453 0.01921549291295295 0.019597164196161254 0.02 0.01 0.010286471445613144 0.010622611927291001 0.010980247194819973 0.011344600454335562 0.011710784312704774 0.012077210986371824 0.012443403663211297 0.012809266200424656 0.013174823598058084 0.013540132670881676 0.013905253132307374
0.014270239576409785 0.014635140552165513 0.015000000000000029 0.015364859447834552 0.01572976042359028 0.016094746867692685 0.016459867329118392 0.01682517640194199 0.017190733799575413 0.01755659633678876 0.017922789013628218 0.01828921568729525 0.01865539954566446 0.019019752805180052 0.01937738807270902 0.019713528554386895 0.02 0.01 0.010403838615275334 0.010786684235323163
0.011159586020393143 0.011528768569240804 0.011896276518739786 0.012262813390151747 0.012628697803644152 0.012994116699162712 0.013359198304144356 0.013724037525547714 0.014088707464840667 0.014453266277409766 0.014817762205972862 0.015182237794027198 0.015546733722590298 0.015911292535159403 0.016275962474452354 0.01664080169585571 0.017005883300837354 0.01737130219635592 0.017737186609848306 0.01810372348126024
0.018471231430759228 0.018840413979606868 0.01921331576467684 0.019596161384724652 0.02 0.01 0.010287076775649127 0.01062494568824542 0.01098480313052951 0.011350531416538011 0.011717164121983904 0.012083403147324846 0.01244905229326992 0.01281419206657343 0.013178946081149612 0.013543423363550291 0.013907709339292106 0.014271869007010272 0.01463595240755646 0.015000000000000025
0.015364047592443609 0.015728130992989798 0.016092290660707963 0.016456576636449772 0.016821053918850446 0.01718580793342663 0.017550947706730123 0.01791659685267519 0.018282835878016126 0.01864946858346201 0.019015196869470525 0.019375054311754607 0.0197129232243509 0.02 0.01 0.010407291755535916 0.010793651995532335 0.011168261055667233 0.011537761629969792 0.011904752531670126
0.012270377558208178 0.012635198271231088 0.012999521736892127 0.01336353098515096 0.013727341500418407 0.014091028584641452 0.014454642506047529 0.014818218125709003 0.015181781874291077 0.015545357493952548 0.01590897141535863 0.016272658499581674 0.016636469014849116 0.01700047826310794 0.017364801728768954 0.017729622441791857 0.01809524746832991 0.018462238370030252 0.0188317389443328 0.019206348004467688
0.01959270824446409 0.020000000000000004 0.01 0.010288149172488877 0.010633611091967317 0.01099707378761709 0.01136325131463858 0.011728853079486934 0.012093563740544053 0.01245759851312007 0.012821195322189696 0.013184529211143608 0.013547714877808212 0.013910822843882781 0.01427389383239119 0.014636949448961958 0.015000000000000051 0.015363050551038137 0.0157261061676089 0.016089177156117317
0.016452285122191886 0.01681547078885647 0.017178804677810366 0.017542401486879987 0.017906436259455996 0.018271146920513116 0.01863674868536147 0.01900292621238296 0.01936638890803272 0.019711850827511156 0.019999999999999997 0.01 0.010423927732308023 0.010813784473456356 0.011187450555609968 0.01155442772804617 0.01191862894445752 0.012281657380422991 0.012644204580396489 0.013006581658929367
0.013368930277937691 0.013731311096932916 0.014093743328048943 0.014456223859666318 0.01481873741063589 0.015181262589364244 0.015543776140333802 0.015906256671951172 0.0162686889030672 0.01663106972206242 0.01699341834107072 0.017355795419603588 0.017718342619577068 0.018081371055542528 0.018445572271953883 0.018812549444390075 0.01918621552654367 0.019576072267691976 0.02 0.01
0.01032430113244491 0.010672669372049307 0.01102999390264439 0.011389085620287419 0.011748704820354311 0.012108723660319854 0.012469142703954762 0.0128299432066943 0.01319108496534137 0.013552516719832259 0.01391418236135303 0.01427602386952329 0.014637982636518896 0.015000000000000074 0.015362017363481245 0.015723976130476845 0.016085817638647103 0.016447483280167874 0.016808915034658745 0.01717005679330579
0.01753085729604532 0.017891276339680212 0.018251295179645736 0.018610914379712618 0.01897000609735563 0.019327330627950716 0.019675698867555103 0.019999999999999997 0.010274294018411453 0.010571829347336222 0.010895633500295383 0.011235880482677723 0.011585164647376498 0.011939293283649614 0.012296119597187518 0.012654567515074364 0.013014075307171111 0.013374320904984216 0.013735095456811662 0.014096246267496995
0.014457650306824926 0.014819200784032694 0.015180799215967444 0.01554234969317522 0.015903753732503176 0.0162649045431885 0.016625679095015944 0.01698592469282904 0.017345432484925767 0.01770388040281261 0.018060706716350485 0.01841483535262358 0.01876411951732233 0.019104366499704657 0.01942817065266381 0.019725705981588553 0.01 0.010357386785441045 0.010710120112115824 0.011062021541327353
0.011414003769158743 0.011767372715876783 0.012122461378151782 0.01247915419480412 0.012837185989701207 0.013196274564489976 0.013556167745671626 0.013916652763798193 0.014277551625601407 0.014638712391687712 0.015000000000000064 0.015361287608312428 0.015722448374398762 0.016083347236201993 0.016443832254328557 0.016803725435510203 0.01716281401029897 0.017520845805196056 0.01787753862184837 0.01823262728412334
0.01858599623084136 0.018937978458672726 0.01928987988788423 0.01964261321455898 0.02
0.0 0.0 0.01 0.01 0.00030936556381079837 0.0 0.0 0.0 0.0 0.0 0.0 0.0 0.0 0.0 0.0 0.0 0.0 0.0 0.0 0.0
0.0 0.0 0.0 0.0 0.0 0.0 0.0 0.0 0.0 0.0 0.0 0.0 0.00030936556381078845 0.00032623261694950914 0.0003238535768630546 0.0003239090046137986 0.00032206905135439184 0.00032011713734491856 0.00031855304258393395 0.0003173828348010622
0.0003165169226856666 0.00031587508384909376 0.0003154006238945273 0.00031505558544356473 0.0003148149098347243 0.0003146624314491208 0.00031458846458421656 0.00031458846458421455 0.00031466243144911683 0.00031481490983472244 0.00031505558544356164 0.0003154006238945255 0.0003158750838490953 0.00031651692268567567 0.0003173828348010785 0.00031855304258395043 0.0003201171373449412 0.00032206905135442177 0.0003239090046138348 0.0003238535768630926
0.0003262326169495656 0.0006233085176011232 0.0006580083652064065 0.0006503473345852566 0.000644881728776791 0.0006402228506537256 0.0006368454711667623 0.0006344748320447537 0.0006327873420930564 0.0006315575554947542 0.0006306476755708438 0.0006299753319128499 0.00062949050820262 0.0006291623476576719 0.0006289721565516551 0.0006289098276058195 0.0006289721565516484 0.0006291623476576693 0.0006294905082026189 0.0006299753319128512
0.0006306476755708468 0.0006315575554947665 0.0006327873420930796 0.0006344748320447844 0.0006368454711668023 0.0006402228506537764 0.0006448817287768601 0.0006503473345853402 0.0006580083652064862 0.0006233085176011221 0.0009340051132000126 0.000957706285801386 0.0009574851513306315 0.0009551961047131743 0.0009523964733532325 0.0009499836574255754 0.0009480718236880448 0.000946584214070292 0.0009454305247432483 0.0009445426506812284
0.0009438743145125352 0.0009433950170134094 0.0009430851509048718 0.0009429329757121583 0.0009429329757121548 0.0009430851509048689 0.0009433950170134061 0.0009438743145125403 0.0009445426506812381 0.000945430524743264 0.000946584214070317 0.0009480718236880807 0.0009499836574256304 0.0009523964733533044 0.0009551961047132603 0.0009574851513307442 0.0009577062858015299 0.000934005113200019 0.001245506799997611 0.001257462061901831
0.0012636093738475664 0.001265263722100008 0.0012648114685145065 0.0012634663077094493 0.0012619943758230734 0.001260656765228061 0.001259517767830257 0.0012585807354277584 0.0012578344619979236 0.0012572668196822651 0.0012568680995213733 0.0012566315144838496 0.0012565530886892685 0.0012566315144838488 0.0012568680995213688 0.0012572668196822706 0.0012578344619979384 0.0012585807354277777 0.001259517767830282 0.001260656765228101
0.0012619943758231317 0.0012634663077095336 0.0012648114685146136 0.0012652637221001377 0.001263609373847733 0.001257462061902056 0.00124550679999761 0.0015603516878887602 0.0015689242731097375 0.0015727506682084909 0.001574674750272142 0.0015750009323467547 0.001574480481051986 0.0015736581539362658 0.0015727887172144303 0.0015719807121900517 0.0015712804451566242 0.0015707085508873664 0.0015702747298331902 0.0015699837035032644
0.0015698377339415993 0.0015698377339416014 0.0015699837035032605 0.001570274729833194 0.0015707085508873775 0.001571280445156647 0.0015719807121900825 0.0015727887172144726 0.0015736581539363274 0.0015744804810520685 0.0015750009323468707 0.0015746747502722936 0.0015727506682086778 0.0015689242731099882 0.0015603516878887813 0.0018727289183947727 0.001879156708407737 0.001880985643202666 0.001883508355361278 0.0018851039475144755
0.0018856906082500926 0.0018856191498374509 0.0018852232558620953 0.0018847032988376338 0.0018841692082491326 0.0018836820469864297 0.0018832772128646149 0.0018829758991796785 0.0018827906744750028 0.0018827282314950891 0.0018827906744750059 0.0018829758991796865 0.0018832772128646261 0.0018836820469864486 0.0018841692082491694 0.001884703298837683 0.0018852232558621603 0.0018856191498375313 0.0018856906082502054 0.0018851039475146318
0.0018835083553614806 0.0018809856432029138 0.001879156708408033 0.001872728918394782 0.002185752416553529 0.0021916319449847986 0.0021928834641954434 0.002194736130698532 0.002196071271606051 0.002196738184360826 0.0021969064931780437 0.002196780182526159 0.002196507103911066 0.0021961831675618975 0.0021958697496281252 0.002195606428193166 0.0021954184679031886 0.0021953209516838287 0.00219532095168383 0.0021954184679032
0.002195606428193179 0.0021958697496281487 0.0021961831675619296 0.0021965071039111226 0.0021967801825262287 0.002196906493178128 0.002196738184360941 0.002196071271606203 0.002194736130698733 0.002192883464195698 0.0021916319449851165 0.002185752416553561 0.0024982862393249207 0.002503437164799439 0.002503890149405973 0.0025049482440328967 0.002506312698872186 0.002507391641791995 0.002508038007885604 0.002508318278674945
0.002508352030618113 0.002508243708104834 0.002508070998538011 0.0025078887847943153 0.002507734672731127 0.0025076330695255277 0.0025075977215642223 0.0025076330695255355 0.0025077346727311375 0.002507888784794332 0.002508070998538046 0.002508243708104887 0.002508352030618186 0.002508318278675034 0.002508038007885719 0.0025073916417921497 0.0025063126988723794 0.002504948244033139 0.0025038901494062763 0.0025034371647997935
0.0024982862393249363 0.002811152607795269 0.002815804484410609 0.0028160585421226994 0.002816953217481072 0.002818021488052999 0.002818906116636316 0.00281949514023654 0.0028198131990036807 0.002819932184394869 0.002819925522332349 0.0028198538815954275 0.0028197631199100917 0.002819685597564392 0.002819641857045507 0.0028196418570455095 0.0028196855975644018 0.002819763119910106 0.0028198538815954514 0.0028199255223324035
0.0028199321843949375 0.002819813199003769 0.0028194951402366573 0.002818906116636464 0.0028180214880531894 0.0028169532174813047 0.0028160585421229934 0.0028158044844109813 0.0028111526077953066 0.0031237411938723693 0.0031278769077447634 0.0031278686280374257 0.003128234645547757 0.003128976876363747 0.0031298151963279446 0.003130531134774351 0.0031310410223288573 0.0031313503178934427 0.003131503013646764 0.0031315507949907606
0.0031315398561206635 0.0031315065425073585 0.0031314764794478185 0.003131464794344517 0.003131476479447826 0.003131506542507376 0.003131539856120686 0.0031315507949908027 0.003131503013646831 0.0031313503178935246 0.0031310410223289635 0.0031305311347744978 0.003129815196328118 0.0031289768763639683 0.0031282346455480305 0.0031278686280377657 0.003127876907745164 0.0031237411938723875 0.0034365574116095986 0.0034400585529745786
0.003439966482158435 0.0034403445408472196 0.0034409639566810118 0.00344162818015339 0.0034421993991046117 0.0034426208469998235 0.003442893086528783 0.003443044936403716 0.0034431132552481007 0.0034431324225121366 0.0034431297407306644 0.0034431237476483046 0.003443123747648309 0.0034431297407306813 0.003443132422512163 0.0034431132552481406 0.00344304493640377 0.003442893086528855 0.003442620846999918 0.0034421993991047366
0.0034416281801535544 0.0034409639566812178 0.003440344540847476 0.003439966482158751 0.0034400585529749824 0.0034365574116096294 0.0037491741805408376 0.003752114044305324 0.0037519818488726637 0.003752065294669197 0.003752422708662783 0.0037529192619055406 0.0037534295900101544 0.0037538668529624474 0.003754194373113728 0.0037544126282145302 0.003754541701823025 0.0037546078893020405 0.003754635851285953 0.0037546447031347897
0.003754646318094803 0.0037546447031348 0.0037546358512859784 0.0037546078893020817 0.0037545417018230755 0.0037544126282145875 0.003754194373113808 0.003753866852962554 0.0037534295900102945 0.0037529192619057284 0.0037524227086630194 0.003752065294669488 0.0037519818488730193 0.0037521140443057444 0.003749174180540848 0.00406194673498203 0.004064143323798109 0.004063997183955626 0.004064133543651588 0.004064439172551694
0.004064816687963087 0.0040651870609781475 0.00406549898330453 0.004065732012074973 0.004065888571876401 0.004065983270704655 0.004066034333749435 0.004066058282657542 0.004066067136306214 0.004066067136306219 0.00406605828265756 0.004066034333749471 0.004065983270704708 0.004065888571876455 0.004065732012075038 0.004065498983304616 0.004065187060978264 0.004064816687963244 0.004064439172551901 0.00406413354365185
0.004063997183955954 0.004064143323798524 0.004061946734982044 0.0043745920469694215 0.004376124220088908 0.004376025218878492 0.004376024849193424 0.004376164888041327 0.004376388908610271 0.004376641394515466 0.0043768781441592295 0.004377072394731607 0.0043772151859307945 0.004377310235303991 0.0043773676047870955 0.004377398700890628 0.004377413171479133 0.004377417277427273 0.004377413171479145 0.004377398700890657
0.0043773676047871414 0.004377310235304046 0.0043772151859308535 0.004377072394731673 0.004376878144159321 0.004376641394515592 0.004376388908610447 0.004376164888041551 0.004376024849193711 0.00437602521887885 0.004376124220089337 0.004374592046969416 0.004687318065715031 0.004688068143282307 0.004688005643298121 0.004688037215332658 0.004688128086077606 0.004688248596607845 0.004688373682719974 0.004688485174310259
0.004688573375983309 0.004688636367344041 0.0046886772845405045 0.004688701424000898 0.004688714097841679 0.004688719358568291 0.0046887193585682975 0.004688714097841702 0.004688701424000935 0.0046886772845405504 0.004688636367344094 0.004688573375983372 0.0046884851743103275 0.004688373682720068 0.004688248596607978 0.0046881280860777965 0.0046880372153329025 0.004688005643298437 0.004688068143282721 0.004687318065715023
0.0049999999999999975 0.004999999999999914 0.004999999999999923 0.004999999999999942 0.0049999999999999515 0.0049999999999999645 0.004999999999999978 0.004999999999999985 0.004999999999999992 0.004999999999999993 0.004999999999999992 0.004999999999999986 0.004999999999999991 0.005 0.005000000000000002 0.00500000000000001 0.005000000000000016 0.005000000000000024 0.005000000000000033 0.005000000000000046
0.0050000000000000565 0.00500000000000006 0.005000000000000076 0.005000000000000114 0.0050000000000001606 0.0050000000000002065 0.005000000000000265 0.005000000000000321 0.004999999999999981 0.005312681934284964 0.005311931856717525 0.0053119943567017415 0.005311962784667242 0.005311871913922311 0.005311751403392097 0.005311626317279991 0.005311514825689721 0.005311426624016676 0.005311363632655942 0.005311322715459471
0.005311298575999076 0.0053112859021583105 0.005311280641431712 0.005311280641431717 0.005311285902158326 0.0053112985759991085 0.005311322715459507 0.005311363632655984 0.005311426624016733 0.00531151482568979 0.0053116263172800745 0.00531175140339221 0.005311871913922475 0.005311962784667466 0.005311994356702036 0.005311931856717902 0.005312681934284934 0.00562540795303057 0.005623875779910918 0.005623974781121365