TITLE = "Written by meshio v4.3.8"
VARIABLES = "X", "Y"
ZONE NODES = 475, ELEMENTS = 862,
DATAPACKING = BLOCK, ZONETYPE = FETRIANGLE
0.01 0.02 0.02 0.01 0.01042273665779012 0.010848622922976154 0.011298690588525517 0.01176783558203872 0.012250511572829168 0.012742065823736468 0.013239333665878563 0.013740229146008188 0.014243342484227704 0.01474765444487577 0.015252345555124265 0.015756657515772335 0.016259770853991853 0.01676066633412148 0.017257934176263572 0.017749488427170865
0.018232164417961307 0.0187013094114745 0.019151377077023857 0.019577263342209886 0.01 0.010461956578579535 0.010954167820596342 0.011458041878061138 0.011963503892317115 0.01246878658337596 0.012974152427632139 0.013479943913580723 0.013986260644585063 0.014493011197022575 0.015000000000000053 0.015506988802977534 0.016013739355415054 0.016520056086419394 0.017025847572367973 0.01753121341662414
0.01803649610768298 0.018541958121938932 0.019045832179403695 0.019538043421420445 0.02 0.01 0.010591424231565746 0.011143460578143085 0.01167214416761414 0.012190444621503737 0.012704001794442017 0.013215336596003824 0.013725643366854898 0.014235500198617659 0.014745181521311492 0.01525481847868865 0.01576449980138248 0.016274356633145252 0.016784663403996317 0.017295998205558136
0.017809555378496413 0.018327855832386004 0.018856539421857058 0.019408575768434362 0.019999999999999997 0.009999999999999998 0.010410356478878103 0.010893411157835951 0.011404015965968751 0.011919897904630335 0.012435527651574758 0.012949945355485985 0.013463287990327491 0.013975887037894683 0.014488044367846883 0.015000000000000072 0.015511955632153272 0.016024112962105472 0.016536712009672674 0.01705005464451418
0.0175644723484254 0.018080102095369806 0.018595984034031357 0.019106588842164113 0.01958964352112188 0.02 0.009999999999999998 0.010571265323818713 0.011115352465721278 0.011643936754305799 0.012165529136405803 0.012683654858729456 0.013199838309211108 0.013714852007050497 0.014229162091909144 0.014743093842058885 0.015256906157941235 0.015770837908090977 0.016285147992949632 0.01680016169078904
0.017316345141270683 0.017834470863594326 0.01835606324569432 0.01888464753427883 0.01942873467618138 0.02 0.01 0.010408415744033872 0.010883003552379734 0.011388346710916477 0.011903155156652247 0.012420125440794495 0.012937062836746449 0.013453448880176098 0.013969289847599922 0.0144847429327929 0.015000000000000038 0.01551525706720719 0.016030710152400172 0.016546551119824008
0.01706293716325365 0.017579874559205594 0.01809684484334782 0.018611653289083575 0.019116996447620303 0.019591584255966108 0.02 0.01 0.010567725588933563 0.011107983260658056 0.011634176797701477 0.012155173258855432 0.012674026117384433 0.01319177372279957 0.013708841294810073 0.01422547153674825 0.014741851190501485 0.015258148809498566 0.0157745284632518 0.01629115870518997
0.01680822627720049 0.017325973882615628 0.01784482674114462 0.018365823202298574 0.018892016739342 0.019432274411066482 0.02 0.01 0.010407567750767484 0.010880876107984322 0.011384130336338427 0.011897382184758755 0.012413834438075887 0.012931155075774792 0.013448563499626882 0.0139658379027808 0.014482962841617824 0.015000000000000022 0.015517037158382208 0.016034162097219223
0.016551436500373145 0.01706884492422524 0.01758616556192415 0.018102617815241275 0.018615869663661598 0.019119123892015685 0.019592432249232496 0.02 0.01 0.010567504873480047 0.011106709747369527 0.01163163294196753 0.012151706411974722 0.012670242479045123 0.013188252868722041 0.01370603076978472 0.014223672500162321 0.014741233359375638 0.015258766640624376 0.015776327499837695
0.01629396923021529 0.016811747131277963 0.017329757520954895 0.01784829358802531 0.018368367058032506 0.018893290252630503 0.019432495126519976 0.02 0.01 0.010407215408229852 0.010880598379532655 0.011383366721499262 0.011895898462336862 0.012411808091847311 0.012928958517745203 0.01344657268258146 0.01396434904318031 0.014482170852609583 0.01499999999999999 0.015517829147390404
0.016035650956819688 0.01655342731741854 0.01707104148225479 0.017588191908152685 0.018104101537663137 0.018616633278500744 0.01911940162046734 0.019592784591770142 0.02 0.01 0.010567759611546164 0.011106730029905282 0.01163123322856467 0.012150869074396678 0.012669117284284605 0.013187071092054907 0.013705015863333425 0.014222994869205653 0.014740996089367301 0.01525900391063268
0.015777005130794337 0.016294984136666565 0.016812928907945092 0.01733088271571539 0.017849130925603324 0.01836876677143534 0.018893269970094734 0.019432240388453845 0.02 0.01 0.010407115981032573 0.010880617250720566 0.011383321212299596 0.011895674640977374 0.012411401727192206 0.012928449900601829 0.013446072356685221 0.01396395668225636 0.014481956862751033 0.014999999999999993
0.015518043137248945 0.016036043317743623 0.01655392764331477 0.017071550099398158 0.01758859827280778 0.01810432535902262 0.01861667878770041 0.01911938274927944 0.01959288401896744 0.02 0.01 0.010567759611546169 0.011106730029905282 0.011631233228564667 0.012150869074396673 0.012669117284284614 0.013187071092054909 0.013705015863333425 0.014222994869205644 0.014740996089367292
0.01525900391063267 0.01577700513079432 0.016294984136666555 0.016812928907945075 0.017330882715715364 0.0178491309256033 0.0183687667714353 0.01889326997009469 0.019432240388453814 0.02 0.009999999999999998 0.01040721540822985 0.010880598379532648 0.011383366721499252 0.01189589846233685 0.012411808091847307 0.012928958517745198 0.01344657268258145 0.013964349043180287 0.014482170852609562
0.014999999999999968 0.015517829147390376 0.016035650956819653 0.016553427317418504 0.01707104148225477 0.017588191908152667 0.01810410153766311 0.018616633278500706 0.019119401620467328 0.019592784591770166 0.02 0.009999999999999998 0.010567504873480018 0.011106709747369497 0.011631632941967509 0.012151706411974699 0.012670242479045102 0.013188252868722015 0.013706030769784678 0.014223672500162267
0.01474123335937558 0.015258766640624314 0.015776327499837643 0.016293969230215238 0.016811747131277907 0.017329757520954826 0.017848293588025237 0.018368367058032426 0.018893290252630444 0.019432495126519934 0.02 0.009999999999999998 0.01040756775076749 0.010880876107984303 0.0113841303363384 0.011897382184758727 0.012413834438075847 0.012931155075774742 0.01344856349962683 0.013965837902780727
0.01448296284161774 0.014999999999999934 0.015517037158382124 0.016034162097219164 0.016551436500373065 0.01706884492422515 0.01758616556192406 0.018102617815241206 0.018615869663661532 0.01911912389201566 0.01959243224923253 0.02 0.01 0.01056772558893353 0.01110798326065801 0.011634176797701427 0.01215517325885538 0.012674026117384374 0.013191773722799498 0.013708841294809983
0.014225471536748146 0.01474185119050139 0.015258148809498476 0.015774528463251725 0.01629115870518989 0.016808226277200376 0.017325973882615517 0.01784482674114451 0.01836582320229847 0.018892016739341894 0.019432274411066396 0.02 0.009999999999999998 0.010408415744033886 0.010883003552379719 0.011388346710916437 0.01190315515665219 0.01242012544079443 0.01293706283674637 0.013453448880175996
0.013969289847599816 0.014484742932792793 0.014999999999999939 0.015515257067207092 0.016030710152400075 0.01654655111982389 0.017062937163253522 0.01757987455920546 0.01809684484334769 0.01861165328908347 0.01911699644762023 0.019591584255966136 0.02 0.01 0.010571265323818664 0.01111535246572122 0.01164393675430573 0.012165529136405725 0.012683654858729371 0.013199838309211006
0.013714852007050393 0.01422916209190903 0.014743093842058776 0.015256906157941136 0.015770837908090876 0.01628514799294951 0.016800161690788906 0.017316345141270527 0.017834470863594167 0.01835606324569415 0.01888464753427867 0.019428734676181246 0.02 0.01 0.010410356478878112 0.01089341115783591 0.011404015965968699 0.011919897904630267 0.01243552765157468 0.012949945355485893
0.013463287990327378 0.01397588703789457 0.014488044367846776 0.014999999999999966 0.01551195563215316 0.01602411296210535 0.016536712009672515 0.017050054644514014 0.017564472348425224 0.01808010209536964 0.018595984034031215 0.01910658884216403 0.019589643521121903 0.02 0.01 0.01059142423156571 0.011143460578143022 0.011672144167614073 0.012190444621503673 0.012704001794441942
0.013215336596003744 0.013725643366854803 0.01423550019861757 0.014745181521311407 0.015254818478688556 0.01576449980138237 0.016274356633145123 0.01678466340399618 0.017295998205557984 0.017809555378496256 0.018327855832385852 0.0188565394218569 0.019408575768434234 0.02 0.01 0.010461956578579545 0.01095416782059632 0.011458041878061105 0.011963503892317068 0.012468786583375923
0.012974152427632089 0.013479943913580664 0.013986260644585007 0.014493011197022522 0.014999999999999993 0.015506988802977469 0.01601373935541497 0.01652005608641931 0.017025847572367893 0.01753121341662407 0.018036496107682917 0.018541958121938887 0.019045832179403685 0.019538043421420476 0.02 0.01042273665779011 0.010848622922976142 0.011298690588525501 0.011767835582038706 0.012250511572829161
0.012742065823736461 0.013239333665878561 0.013740229146008193 0.014243342484227709 0.014747654444875778 0.01525234555512428 0.01575665751577236 0.016259770853991884 0.01676066633412152 0.017257934176263617 0.017749488427170917 0.018232164417961348 0.018701309411474534 0.019151377077023878 0.019577263342209897
0.0 0.0 0.01 0.01 0.0 0.0 0.0 0.0 0.0 0.0 0.0 0.0 0.0 0.0 0.0 0.0 0.0 0.0 0.0 0.0
0.0 0.0 0.0 0.0 0.0004446668241454932 0.000479455607044651 0.0004758790703612672 0.0004710311621163971 0.0004672629233497014 0.00046456171204536044 0.00046267699075678084 0.00046138674243396656 0.00046054677213641 0.00046007221620284324 0.0004599186448410854 0.00046007221620284687 0.0004605467721364205 0.0004613867424339805 0.00046267699075680513 0.0004645617120453897
0.00046726292334974137 0.00047103116211645184 0.0004758790703613328 0.00047945560704470617 0.0004446668241454912 0.0008930154931549295 0.0009222665481182658 0.0009250828613481337 0.0009246811795802915 0.0009232819350820395 0.0009217668882403306 0.0009204301355230795 0.0009193831728174742 0.0009186716447688368 0.0009183131420201529 0.0009183131420201572 0.0009186716447688487 0.0009193831728175 0.0009204301355231188 0.0009217668882403808
0.0009232819350821082 0.0009246811795803888 0.0009250828613482663 0.0009222665481184404 0.000893015493154928 0.0013481101830297914 0.0013651272560429035 0.0013715592289579716 0.0013755676820658377 0.0013770596406801614 0.001377197188123527 0.0013767442869690514 0.0013761155515775961 0.0013755428136926421 0.0013751557688234945 0.0013750200829238475 0.0013751557688235056 0.0013755428136926681 0.0013761155515776447 0.0013767442869691124
0.0013771971881236154 0.0013770596406802859 0.0013755676820660094 0.0013715592289582097 0.001365127256043212 0.001348110183029778 0.0018057843312091282 0.0018204877666408946 0.0018242806338556376 0.001827878533601256 0.0018298626214473092 0.001830686613539481 0.0018308599971700134 0.0018307357532385518 0.001830541632562322 0.0018304130676730904 0.0018304130676730969 0.0018305416325623436 0.001830735753238597 0.001830859997170082
0.0018306866135395815 0.0018298626214474486 0.001827878533601454 0.001824280633855916 0.0018204877666412969 0.001805784331209125 0.0022617463657791815 0.0022744460930377414 0.00227550881413634 0.0022782813261205226 0.002281090525403846 0.002282977745328611 0.002284020681481568 0.0022844970109073175 0.002284657771031314 0.0022846835531801606 0.0022846805351836455 0.0022846835531801753 0.002284657771031349 0.0022844970109073843
0.0022840206814816774 0.0022829777453287586 0.002281090525404049 0.0022782813261208027 0.0022755088141367314 0.002274446093038259 0.0022617463657791654 0.002718332436538097 0.002729907792889099 0.0027301225912923772 0.0027322915720112374 0.0027345404881155195 0.002736189515648651 0.0027372141383692444 0.0027377738148234064 0.002738039991022531 0.0027381400910572516 0.002738140091057258 0.0027380399910225594 0.0027377738148234637
0.0027372141383693463 0.002736189515648801 0.0027345404881157216 0.0027322915720115115 0.0027301225912927593 0.0027299077928896616 0.0027183324365380973 0.0031743635762008994 0.0031847556275497505 0.0031839500981696188 0.0031846318925394614 0.003186328941650517 0.0031880495746779386 0.0031893649281496956 0.003190226314968462 0.0031907250487735015 0.003190971524125787 0.0031910444123103994 0.0031909715241258112 0.003190725048773553
0.0031902263149685478 0.0031893649281498323 0.003188049574678135 0.0031863289416507734 0.0031846318925398153 0.0031839500981701097 0.0031847556275503906 0.0031743635762008873 0.0036310214301431554 0.0036389493854846224 0.0036381302299413037 0.00363887220634202 0.003640174761806543 0.0036414277118794283 0.003642381790162957 0.003643010119272898 0.0036433710906792153 0.0036435315793335635 0.003643531579333581 0.0036433710906792604
0.0036430101192729764 0.003642381790163073 0.0036414277118796017 0.0036401747618067803 0.003638872206342346 0.0036381302299417586 0.003638949385485275 0.0036310214301431545 0.00408715874560824 0.004093061343672615 0.004092269725824257 0.004092249213226736 0.004092910028365706 0.0040937886145756075 0.004094581946613495 0.004095169883420726 0.004095547256089951 0.004095750285383832 0.004095813520544363 0.004095750285383865
0.004095547256090017 0.004095169883420832 0.004094581946613644 0.0040937886145758174 0.00409291002836599 0.004092249213227132 0.004092269725824805 0.004093061343673321 0.004087158745608228 0.00454368310512512 0.004546520544935045 0.004546100588624391 0.004546245609191299 0.0045466406522888725 0.004547077914864789 0.004547443343756684 0.0045477010052509155 0.00454785708833338 0.004547929077765997 0.004547929077766012
0.004547857088333426 0.004547701005251004 0.0045474433437568155 0.004547077914864974 0.0045466406522891205 0.004546245609191642 0.004546100588624872 0.004546520544935723 0.004543683105125116 0.0049999999999999975 0.004999999999999819 0.004999999999999854 0.004999999999999891 0.004999999999999919 0.0049999999999999385 0.004999999999999943 0.0049999999999999515 0.00499999999999996 0.004999999999999979 0.004999999999999993
0.005000000000000008 0.0050000000000000305 0.005000000000000061 0.005000000000000103 0.005000000000000149 0.005000000000000206 0.0050000000000002915 0.005000000000000403 0.0050000000000005205 0.004999999999999991 0.005456316894874876 0.005453479455064606 0.005453899411375354 0.005453754390808516 0.005453359347710989 0.005452922085135097 0.005452556656243215 0.005452298994749001 0.005452142911666565 0.005452070922233973
0.0054520709222339895 0.00545214291166661 0.005452298994749082 0.005452556656243349 0.005452922085135273 0.0054533593477112275 0.00545375439080884 0.0054538994113758205 0.005453479455065259 0.005456316894874865 0.005912841254391756 0.005906938656327028 0.005907730274175458 0.005907750786773056 0.005907089971634142 0.005906211385424268 0.005905418053386407 0.005904830116579185 0.005904452743909982 0.005904249714616129
0.005904186479455623 0.005904249714616158 0.005904452743910038 0.005904830116579281 0.005905418053386547 0.005906211385424467 0.005907089971634405 0.005907750786773419 0.005907730274175961 0.005906938656327664 0.005912841254391747 0.006368978569856838 0.006361050614515051 0.006361869770058462 0.006361127793657808 0.006359825238193323 0.0063585722881204666 0.0063576182098369636 0.006356989880727033 0.006356628909320737
0.0063564684206664085 0.0063564684206664215 0.0063566289093207745 0.006356989880727095 0.006357618209837058 0.006358572288120617 0.006359825238193539 0.006361127793658099 0.006361869770058862 0.0063610506145156225 0.006368978569856817 0.006825636423799095 0.006815244372449941 0.006816049901830135 0.006815368107460352 0.00681367105834934 0.0068119504253219545 0.0068106350718502235 0.0068097736850314785 0.006809274951226451
0.006809028475874177 0.0068089555876895864 0.006809028475874195 0.006809274951226493 0.00680977368503154 0.006810635071850327 0.006811950425322105 0.006813671058349567 0.006815368107460655 0.00681604990183055 0.006815244372450478 0.006825636423799076 0.007281667563461898 0.007270092207110636 0.00726987740870743 0.007267708427988615 0.00726545951188437 0.007263810484351269 0.007262785861630696 0.007262226185176552
0.007261960008977432 0.007261859908942726 0.007261859908942732 0.007261960008977452 0.007262226185176595 0.007262785861630763 0.00726381048435137 0.007265459511884525 0.007267708427988847 0.007269877408707743 0.0072700922071110815 0.007281667563461864 0.00773825363422082 0.007725553906962024 0.007724491185863474 0.007721718673879336 0.007718909474596045 0.00771702225467131 0.007715979318518374 0.007715502989092641
0.007715342228968654 0.007715316446819812 0.007715319464816339 0.00771531644681982 0.007715342228968677 0.007715502989092692 0.00771597931851844 0.007717022254671417 0.007718909474596202 0.007721718673879557 0.007724491185863768 0.0077255539069623945 0.007738253634220792 0.008194215668790871 0.008179512233358915 0.008175719366144231 0.008172121466398645 0.008170137378552616 0.008169313386460464 0.008169140002829952
0.008169264246761418 0.008169458367437649 0.008169586932326887 0.008169586932326897 0.008169458367437661 0.008169264246761445 0.008169140002830002 0.008169313386460536 0.008170137378552723 0.008172121466398796 0.008175719366144425 0.008179512233359193 0.008194215668790836 0.008651889816970213 0.008634872743956967 0.00862844077104191 0.008624432317934074 0.00862294035931978 0.008622802811876426 0.008623255713030926
0.008623884448422376 0.008624457186307333 0.008624844231176487 0.008624979917076135 0.008624844231176496 0.008624457186307355 0.008623884448422405 0.008623255713030966 0.008622802811876492 0.008622940359319872 0.008624432317934201 0.00862844077104207 0.008634872743957148 0.008651889816970184 0.009106984506845068 0.009077733451881658 0.009074917138651795 0.009075318820419656 0.00907671806491793 0.009078233111759652
0.00907956986447691 0.00908061682718251 0.00908132835523115 0.009081686857979837 0.009081686857979842 0.00908132835523116 0.009080616827182529 0.009079569864476928 0.009078233111759685 0.009076718064917973 0.009075318820419731 0.009074917138651885 0.009077733451881748 0.009106984506845047 0.009555333175854505 0.009520544392955327 0.0095241209296387 0.009528968837883577 0.009532737076650278 0.00953543828795463
0.009537323009243214 0.009538613257566032 0.00953945322786358 0.009539927783797156 0.009540081355158915 0.009539927783797163 0.00953945322786359 0.009538613257566041 0.009537323009243225 0.009535438287954646 0.009532737076650305 0.009528968837883614 0.00952412092963874 0.009520544392955344 0.009555333175854495 0.01 0.01 0.01 0.01 0.01
0.01 0.01 0.01 0.01 0.01 0.01 0.01 0.01 0.01 0.009999999999999998 0.010000000000000002 0.01 0.01 0.01 0.01
194 214 193
231 251 230
251 231 252
212 211 191
44 45 65
18 39 38
464 444 465
460 459 439
459 438 439
438 459 458
395 394 374
149 148 128
192 212 191
171 192 191
264 244 265
286 307 306
225 224 204
164 144 165
144 143 123
143 144 164
185 164 165
45 24 2
24 45 44
23 24 44
240 260 239
219 240 239
179 200 199
242 221 222
221 242 241
23 43 22
43 23 44
102 103 123
43 42 22
35 15 36
17 18 38
455 454 434
454 433 434
390 369 370
260 259 239
259 238 239
280 259 260
435 456 4
437 438 458
457 437 458
231 210 211
210 231 230
149 169 148
411 410 390
388 367 368
347 367 346
367 347 368
301 322 321
304 325 324
344 323 324
286 285 265
285 264 265
285 286 306
243 242 222
242 243 263
264 243 244
243 264 263
147 167 146
166 167 187
167 147 168
167 166 146
188 167 168
167 188 187
206 207 227
207 228 227
270 290 269
290 291 311
290 270 291
310 290 311
125 126 146
147 126 127
126 147 146
126 106 127
145 125 146
166 145 146
145 166 165
144 145 165
122 102 123
143 122 123
185 184 164
138 117 118
200 220 199
240 220 241
220 219 199
220 240 219
220 221 241
221 220 200
117 116 96
37 17 38
1 5 25
62 82 61
82 103 102
42 21 22
40 19 20
19 39 18
19 40 39
34 35 55
475 474 454
475 455 3
455 475 454
453 474 473
433 453 432
453 433 454
474 453 454
452 453 473
453 452 432
300 301 321
301 300 280
253 273 252
415 395 416
395 415 394
170 171 191
171 170 150
170 149 150
170 169 149
219 198 199
116 136 115
149 129 150
129 149 128
129 130 150
153 152 132
152 131 132
192 172 193
172 192 171
307 327 306
369 389 368
389 388 368
389 369 390
410 389 390
387 367 388
446 425 426
383 362 363
362 383 382
367 366 346
387 366 367
366 387 386
343 322 323
343 364 363
343 344 364
344 343 323
425 405 426
332 331 311
331 310 311
352 331 332
331 352 351
305 325 304
305 285 306
223 224 244
202 223 222
243 223 244
223 243 222
270 249 250
249 270 269
249 229 250
229 249 228
186 166 187
166 186 165
186 185 165
185 186 206
186 207 206
207 186 187
188 208 187
229 208 209
208 188 209
208 229 228
207 208 228
208 207 187
266 286 265
226 206 227
247 226 227
246 226 247
226 246 225
268 289 288
289 268 269
289 290 310
290 289 269
103 124 123
124 144 123
124 145 144
145 124 125
183 184 204
142 122 143
15 16 36
37 16 17
16 37 36
39 59 38
79 99 78
122 101 102
117 97 118
97 117 96
35 56 55
56 35 36
5 26 25
26 5 6
64 43 44
64 44 65
126 105 106
105 126 125
82 83 103
83 82 62
41 62 61
41 42 62
40 41 61
41 40 20
41 21 42
21 41 20
35 14 15
34 14 35
14 34 13
391 411 390
391 390 370
452 431 432
431 411 432
410 431 430
431 410 411
451 431 452
431 451 430
472 452 473
451 472 471
472 451 452
341 320 321
320 300 321
213 192 193
214 213 193
192 213 212
213 233 212
232 231 211
231 232 252
212 232 211
232 253 252
232 233 253
233 232 212
234 213 214
213 234 233
295 316 315
294 295 315
375 395 374
194 215 214
435 436 456
436 457 456
437 436 416
436 437 457
415 436 435
436 415 416
441 462 461
362 361 341
361 362 382
297 318 317
339 318 319
210 190 211
211 190 191
190 210 189
169 190 189
170 190 169
190 170 191
116 95 96
95 116 115
75 95 74
95 75 96
237 217 238
178 179 199
179 178 158
178 198 177
198 178 199
138 137 117
137 138 158
137 116 117
137 136 116
31 51 30
112 133 132
133 153 132
151 171 150
130 151 150
131 151 130
151 131 152
172 151 152
151 172 171
173 153 174
173 194 193
173 174 194
153 173 152
172 173 193
173 172 152
348 369 368
327 348 347
347 348 368
446 467 466
445 466 465
444 445 465
446 445 425
445 446 466
400 399 379
399 400 420
383 403 382
240 261 260
261 240 241
322 302 323
301 302 322
345 325 346
325 345 324
345 344 324
366 345 346
362 342 363
322 342 321
342 341 321
342 362 341
343 342 322
342 343 363
364 384 363
385 384 364
384 383 363
405 384 385
326 347 346
327 326 306
325 326 346
326 327 347
305 326 325
326 305 306
228 248 227
268 248 269
248 247 227
248 268 247
249 248 228
248 249 269
224 245 244
244 245 265
245 224 225
246 245 225
266 245 246
245 266 265
268 267 247
267 268 288
267 246 247
267 266 246
184 205 204
205 185 206
205 225 204
205 184 185
226 205 206
205 226 225
330 331 351
331 330 310
330 350 329
350 330 351
224 203 204
203 223 202
223 203 224
203 183 204
183 182 162
203 182 183
182 203 202
201 202 222
201 221 200
221 201 222
141 142 162
119 99 120
159 179 158
138 159 158
163 183 162
163 143 164
184 163 164
183 163 184
142 163 162
163 142 143
58 37 38
58 79 78
58 59 79
59 58 38
59 80 79
76 75 55
97 76 77
75 76 96
76 97 96
76 56 77
56 76 55
64 85 84
86 85 65
106 85 86
85 64 65
85 105 84
105 85 106
42 63 62
64 63 43
63 42 43
63 64 84
83 63 84
63 83 62
105 104 84
124 104 125
104 124 103
104 105 125
83 104 103
104 83 84
352 372 351
372 352 373
372 393 392
393 372 373
413 414 434
433 413 434
413 393 414
393 413 392
233 254 253
234 254 233
294 293 273
395 396 416
375 396 395
174 195 194
195 175 196
175 195 174
195 215 194
296 295 275
296 297 317
316 296 317
296 316 295
296 276 297
276 296 275
299 320 319
320 299 300
258 237 238
259 258 238
277 276 256
276 277 297
462 442 463
441 442 462
460 440 461
440 460 439
441 440 420
440 441 461
358 359 379
340 339 319
320 340 319
340 320 341
361 340 341
218 219 239
238 218 239
218 198 219
217 218 238
178 157 158
157 178 177
137 157 136
157 137 158
114 135 134
135 114 115
136 135 115
135 155 134
175 176 196
155 176 175
10 11 31
10 30 9
10 31 30
73 53 74
114 94 115
94 95 115
95 94 74
94 114 93
73 94 93
94 73 74
153 154 174
154 175 174
155 154 134
154 155 175
133 154 153
154 133 134
349 350 370
369 349 370
350 349 329
348 349 369
447 446 426
447 467 446
467 447 468
408 387 388
407 408 428
387 407 386
408 407 387
402 403 423
403 402 382
423 424 444
424 445 444
445 424 425
403 424 423
284 305 304
264 284 263
285 284 264
305 284 285
283 284 304
284 283 263
283 262 263
242 262 241
262 242 263
262 283 282
262 261 241
261 262 282
303 304 324
323 303 324
303 283 304
283 303 282
303 302 282
302 303 323
261 281 260
281 280 260
281 301 280
281 261 282
281 302 301
302 281 282
344 365 364
385 365 386
365 385 364
365 366 386
365 345 366
345 365 344
308 287 288
266 287 286
287 307 286
287 308 307
267 287 266
287 267 288
309 308 288
289 309 288
309 289 310
308 309 329
309 330 329
330 309 310
181 182 202
201 181 202
142 121 122
121 101 122
141 121 142
121 141 120
141 140 120
140 119 120
97 98 118
98 77 78
99 98 78
98 97 77
119 98 99
98 119 118
37 57 36
56 57 77
77 57 78
57 56 36
58 57 37
57 58 78
60 40 61
40 60 39
60 59 39
60 80 59
391 371 392
350 371 370
371 350 351
371 391 370
371 372 392
372 371 351
412 433 432
411 412 432
391 412 411
412 391 392
413 412 392
412 413 433
295 274 275
294 274 295
274 273 253
274 294 273
254 274 253
274 254 275
276 255 256
255 276 275
255 254 234
254 255 275
355 335 356
333 354 353
353 354 374
354 375 374
354 355 375
355 376 375
376 355 356
376 396 375
216 236 215
217 216 196
216 217 237
236 216 237
195 216 215
216 195 196
299 279 300
279 259 280
300 279 280
279 299 278
279 258 259
258 279 278
299 298 278
318 298 319
298 318 297
298 299 319
298 277 278
277 298 297
236 257 256
258 257 237
257 236 237
257 258 278
257 277 256
277 257 278
443 444 464
443 464 463
443 423 444
442 443 463
421 441 420
400 421 420
421 442 441
337 316 317
399 378 379
378 358 379
198 197 177
197 217 196
218 197 198
197 218 217
197 176 177
176 197 196
156 135 136
156 157 177
157 156 136
135 156 155
156 176 155
176 156 177
34 33 13
52 51 31
52 53 73
114 113 93
113 114 134
133 113 134
113 133 112
92 113 112
113 92 93
328 308 329
328 327 307
308 328 307
328 348 327
328 349 348
349 328 329
469 449 470
450 451 471
451 450 430
450 471 470
449 450 470
389 409 388
409 410 430
409 389 410
409 408 388
406 385 386
405 406 426
406 405 385
407 406 386
381 361 382
402 381 382
404 403 383
384 404 383
404 405 425
404 384 405
404 424 403
424 404 425
180 201 200
179 180 200
180 159 160
159 180 179
180 181 201
181 180 160
80 100 79
99 100 120
100 99 79
100 80 101
121 100 101
100 121 120
161 141 162
182 161 162
161 181 160
181 161 182
161 140 141
140 161 160
119 139 118
139 159 138
139 138 118
159 139 160
140 139 119
139 140 160
81 82 102
82 81 61
101 81 102
80 81 101
60 81 80
81 60 61
108 129 128
107 108 128
89 88 68
51 50 30
27 6 7
27 26 6
235 236 256
235 234 214
215 235 214
236 235 215
235 255 234
255 235 256
251 272 271
272 251 252
273 272 252
293 272 273
292 272 293
272 292 271
313 292 293
312 313 333
292 313 312
443 422 423
422 402 423
422 443 442
421 422 442
318 338 317
359 338 339
338 318 339
358 338 359
337 338 358
338 337 317
336 335 315
316 336 315
335 336 356
337 336 316
438 418 439
33 12 13
75 54 55
54 34 55
54 75 74
53 54 74
33 54 53
54 33 34
92 72 93
72 73 93
52 72 51
72 52 73
449 448 428
447 448 468
469 448 449
448 469 468
408 429 428
429 449 428
450 429 430
429 450 449
409 429 408
429 409 430
360 359 339
340 360 339
360 340 361
381 360 361
27 47 26
108 87 88
87 108 107
110 131 130
29 8 9
30 29 9
29 50 49
50 29 30
335 314 315
314 294 315
314 293 294
314 313 293
401 381 402
401 421 400
401 422 421
422 401 402
357 337 358
378 357 358
357 336 337
336 357 356
376 397 396
419 440 439
419 399 420
440 419 420
418 419 439
32 52 31
32 33 53
11 32 31
52 32 53
32 12 33
12 32 11
406 427 426
427 407 428
427 447 426
427 406 407
427 448 447
448 427 428
26 46 25
47 46 26
47 48 68
48 47 27
108 109 129
129 109 130
109 108 88
89 109 88
110 109 89
109 110 130
90 110 89
334 335 355
334 354 333
354 334 355
313 334 333
314 334 313
334 314 335
360 380 359
359 380 379
380 400 379
380 360 381
401 380 381
380 401 400
437 417 438
417 437 416
396 417 416
417 418 438
417 397 418
397 417 396
357 377 356
377 376 356
377 357 378
377 397 376
67 47 68
87 67 88
88 67 68
67 87 66
67 46 47
46 67 66
28 27 7
8 28 7
29 28 8
28 29 49
28 48 27
48 28 49
50 70 49
110 111 131
111 112 132
131 111 132
90 111 110
397 398 418
419 398 399
398 378 399
398 419 418
377 398 397
398 377 378
48 69 68
69 48 49
69 89 68
69 90 89
69 70 90
70 69 49
72 71 51
71 50 51
71 72 92
71 70 50
70 91 90
111 91 112
91 92 112
91 111 90
71 91 70
91 71 92
