TITLE = "Written by meshio v4.3.11"
VARIABLES = "X", "Y"
ZONE NODES = 8, ELEMENTS = 6,
DATAPACKING = BLOCK, ZONETYPE = FETRIANGLE
0.0 2.0 6.123233995736766e-17 1.0 0.7266124014450803 1.7483549862003287 0.0 1.037428451706217
2.0 0.0 1.0 -2.4492935982947064e-16 0.6870476097522014 0.9712130776654775 1.5110634388288502 1.7098953791359406
4 6 5
6 4 2
6 8 5
8 7 5
7 3 5
7 8 1
