TITLE = "Written by meshio v4.3.11"
VARIABLES = "X", "Y"
ZONE NODES = 8, ELEMENTS = 7,
DATAPACKING = BLOCK, ZONETYPE = FETRIANGLE
0.0 0.0 2.0 1.046328235991603 0.8104319257811221 1.7458024230204803 0.0 0.975793984289625
0.0 2.0 0.0 0.0 0.8104319257811219 0.9757939842896246 1.0463282359916033 1.74580242302048
6 4 3
4 5 1
5 4 6
8 5 6
1 5 7
7 8 2
8 7 5
