TITLE = "Written by meshio v4.3.11"
VARIABLES = "X", "Y"
ZONE NODES = 5, ELEMENTS = 3,
DATAPACKING = BLOCK, ZONETYPE = FETRIANGLE
0.0 0.0 2.0 0.9556420481607998 1.349392018410034
0.0 2.0 0.0 0.0 1.4761914444445523
5 4 3
4 5 1
2 1 5
