TITLE = "Written by meshio v4.3.11"
VARIABLES = "X", "Y"
ZONE NODES = 17470, ELEMENTS = 34390,
DATAPACKING = BLOCK, ZONETYPE = FETRIANGLE
0.0 2.0 6.123233995736766e-17 1.0 1.0105069241858464 1.0223462771571088 1.0342623244232643 1.0463765436505426 1.0586475069989056 1.0710408923206947 1.083524440654323 1.0960701800609236 1.108658384518029 1.121275209845583 1.1339113081946601 1.1465604820687159 1.1592186648699632 1.1718831968867152 1.184552331900783 1.1972249091308436
1.2099001387807113 1.22257746377538 1.235256471798 1.2479368401360251 1.2606183016791426 1.2733006243738727 1.2859835990984705 1.2986670326933574 1.3113507440564933 1.3240345619868636 1.3367183239653486 1.3494018753898989 1.3620850689911133 1.3747677642853402 1.3874498270023432 1.400131128471542 1.412811544976899 1.4254909571036212 1.4381692491051892 1.4508463083200707
1.4635220246659366 1.4761962902364585 1.4888689990225574 1.5015400467766036 1.514209331034662 1.5268767513084092 1.5395422094546543 1.5522056102262998 1.5648668620037671 1.5775258777000611 1.5901825758252703 1.602836881686821 1.615488728689394 1.6281380596819652 1.640784828277372 1.6534290000398824 1.6660705533952525 1.6787094800610292 1.6913457847156532 1.7039794835134012
1.7166106008940685 1.7292391639105331 1.7418651929731521 1.75448868744187 1.7671096038175433 1.7797278232927265 1.7923431039679814 1.80495501089423 1.8175628139177997 1.8301653385551546 1.842760748023731 1.8553462239836536 1.8679174980750064 1.880468166676462 1.8929886988806424 1.9054650265960267 1.9178767297357888 1.9301951897968013 1.9423836370005503 1.9543998516889491
1.9662184277271548 1.9778641622067008 1.9896302323051325 0.9999327351549888 1.0143226735633284 1.0271867420464296 1.0396732191271065 1.052106831157593 1.0645794652529708 1.0771074693141423 1.0896812707577148 1.1022877730265928 1.1149164141641188 1.1275599077843779 1.1402134963077353 1.1528741731809211 1.165540009924769 1.1782097643936562 1.190882592747346 1.2035579054669172
1.2162352591144292 1.2289143064065164 1.2415947565608112 1.2542763576755234 1.2669588825079712 1.2796421222184844 1.2923258815375853 1.3050099766153 1.3176942334508843 1.3303784870877278 1.343062580954043 1.3557463663245086 1.368429701748273 1.3811124524315743 1.3937944895613328 1.4064756895883994 1.419155933495397 1.4318351060792192 1.444513095278537 1.4571897915748662
1.469865087493148 1.4825388772246069 1.4952110563916587 1.5078815219715578 1.5205501723926507 1.53321690781411 1.5458816305969045 1.5585442459701753 1.5712046628928127 1.5838627951046016 1.5965185623541787 1.6091718917816853 1.621822719421659 1.634470991774306 1.647116667371898 1.6597597182324564 1.6724001310597096 1.685037907972227 1.6976730665159026 1.7103056385176687
1.7229356674256884 1.7355632031870911 1.748188294382185 1.7608109754122485 1.7734312493121 1.7860490607760737 1.7986642630045124 1.8112765650642864 1.8238854708441874 1.8364901778705345 1.8490894589250053 1.8616814507935264 1.8742633717271655 1.8868309770727816 1.8993776851823072 1.9118929185396198 1.924359554690317 1.9367510446857985 1.9490337420205426 1.9611926586729123
1.9733203851084937 1.9858366143232296 1.9999654253348575 0.9996947531229387 1.0092308376517785 1.0207756301770357 1.0330296759025301 1.045469413103313 1.0580048981198666 1.070599577103325 1.083226501355522 1.0958710971245638 1.1085256461180406 1.1211862054766548 1.1338508317995581 1.1465185277762522 1.15918879551899 1.1718613279605359 1.1845359177369774 1.197212372396874
1.209890510155216 1.2225701405847944 1.2352510728738555 1.2479331129473505 1.2606160690594235 1.2732997522140752 1.2859839787911578 1.2986685712459014 1.311353359154154 1.3240381795558431 1.3367228771701616 1.349407304284612 1.362091320452938 1.374774792004536 1.387457591419884 1.4001395966130763 1.4128206901650302 1.4255007585489623 1.4381796913851725 1.4508573807587657
1.4635337206292705 1.4762086063574316 1.488881934370975 1.50155360198818 1.514223507415609 1.5268915499340345 1.5395576302844856 1.552221651263964 1.5648835185377665 1.57754314167194 1.5902004353851453 1.6028553210132814 1.6155077281725467 1.6281575965954558 1.6408048781006392 1.6534495386347292 1.666091560304393 1.6787309432651252 1.6913677073293214 1.704001893008783
1.7166335618641546 1.7292627955038795 1.7418896935379138 1.7545143687421954 1.7671369417809115 1.7797575304010786 1.792376242286877 1.8049931569160071 1.8176083242165357 1.8302217411032042 1.8428333753170738 1.8554431421881272 1.8680509746828258 1.8806567658844533 1.8932603676575115 1.9058610294611273 1.918455911391157 1.9310349755314316 1.9435679356537439 1.9559778932403513
1.968122156780991 1.9798513918013525 1.9909528828174874 0.9993489014021085 1.0123288766842946 1.0255671512679303 1.038475638219347 1.051251659817666 1.063993117255367 1.0767130850966817 1.089417414803155 1.1021103966430783 1.1147957343391013 1.12747630482396 1.1401542970431162 1.1528312084404808 1.165508074313102 1.178185519654993 1.1908639155498115 1.2035434234525983
1.2162240828675754 1.2289058401848216 1.2415885912362936 1.2542721971376989 1.2669565026991534 1.2796413442067098 1.2923265567612534 1.3050119777468023 1.3176974494973408 1.330382820549219 1.3430679463101187 1.3557526891483567 1.368436918138284 1.381120508544768 1.3938033411421775 1.40648530143662 1.4191662788487773 1.4318461659058193 1.4445248574818477 1.4572022501203896
1.469878241466859 1.4825527298349674 1.4952256139278763 1.5078967927326243 1.5205661656046694 1.533233632558074 1.5458990947757614 1.5585624553531714 1.5712236202872614 1.5838824997209773 1.596539009450758 1.609193072700865 1.621844622163032 1.6344936022922143 1.6471399718387727 1.6597837065825765 1.6724248022159547 1.6850632773010918 1.69769917619467 1.7103325718426068
1.7229635682528295 1.7355923027239202 1.7482189474318774 1.7608437114878317 1.7734668422630475 1.786088630916982 1.7987094179263672 1.8113296148225244 1.8239497292075695 1.8365704374178276 1.8491926728294104 1.861817835928591 1.8744480677519137 1.8870868220680521 1.8997396859421265 1.9124159152773366 1.925130482419323 1.9379059605396085 1.950766745803752 1.963694533475923
1.9764840076304933 1.9887007720045367 1.999840146567328 0.9988099027254411 1.0086738841344913 1.019693591648261 1.0319212531872677 1.04459465893688 1.0573976764961126 1.0701928459953933 1.0829553780378116 1.0956883389564072 1.1083999534096134 1.121097579274526 1.1337865760923744 1.1464706517592174 1.1591522203135498 1.1718328375811067 1.1845134373512571 1.1971945591871325
1.2098764664783175 1.2225592536711125 1.23524290268011 1.247927330118841 1.2606124129422263 1.2732980079058334 1.2859839625177805 1.2986701225323423 1.3113563362158027 1.3240424568874032 1.3367283441959956 1.3494138645800022 1.3620988911921614 1.374783303454072 1.3874669863860525 1.4001498297976929 1.4128317274173225 1.425512576013822 1.4381922745568745 1.4508707234509892
1.4635478238731061 1.4762234772386293 1.4888975848176311 1.5015700475210338 1.5142407658753136 1.5269096402039424 1.5395765710336682 1.5522414597440646 1.5649042094790708 1.577564726339586 1.5902229208761758 1.6028787099004662 1.6155320186327442 1.6281827832004991 1.640830953499656 1.653476496422167 1.6661193994497228 1.678759674596185 1.6913973626826564 1.7040325379198376
1.7166653127633344 1.729295843181864 1.7419243341833195 1.7545510467619578 1.7671763052042007 1.779800510105943 1.7924241516719568 1.805047842448831 1.8176723490174764 1.8302986803738663 1.8429281736052743 1.8555627291777048 1.8682050646411594 1.8808593556403468 1.8935320885947011 1.9062340386185792 1.9189835955370742 1.9318140405332997 1.94478798783782 1.9580275955098658
1.9717472813642267 1.9859485700277684 1.999646690135123 0.9981961475036261 1.0113103162556225 1.0245249362432982 1.0376637040929098 1.0507324335917754 1.0636643471793317 1.0765011216962403 1.0892760370851784 1.102012149536679 1.1147243539170835 1.127422238322131 1.1401118268236476 1.1527969583410553 1.1654799748596967 1.1781623157269996 1.1908447910946627 1.203527839998193
1.2162116456784813 1.228896246061507 1.2415815838941864 1.2542675517883413 1.2669540135107624 1.2796408210851118 1.2923278232094497 1.3050148711178107 1.317701821406028 1.3303885375566895 1.3430748903882745 1.3557607579093418 1.3684460247742822 1.3811305814980235 1.3938143235388525 1.406497150320873 1.4191789642550765 1.4318596698004664 1.4445391725998815 1.4572173787176843
1.4698941940027095 1.4825695235969725 1.4952432716093793 1.5079153409732773 1.520585633507097 1.5332540501984344 1.5459204917333225 1.5585848592943308 1.5712470556530322 1.5839069865845636 1.5965645626338307 1.6092197012649831 1.621872329426177 1.634522386564229 1.6471698281174747 1.659814629526317 1.6724567907673156 1.6850963414813467 1.6977333466264692 1.7103679128856843
1.7230001955483736 1.7356304066866592 1.7482588238220624 1.7608858015813802 1.7735117844632415 1.7861373269640837 1.7987631176626846 1.8113900201962851 1.8240191278153142 1.8366518547281694 1.8492900716181562 1.8619363280080061 1.8745942201030996 1.887269011490735 1.899968752948264 1.9127062701025093 1.9255027753042966 1.9383935876619673 1.9514343661677003 1.9646837770561651
1.977929350443927 1.989378971453257 1.999402486783455 0.9973545464531296 1.0076015819339565 1.018703777977693 1.0312456737733344 1.044283502397378 1.0572450704647771 1.0701111239722154 1.0829050255112007 1.095651733153182 1.1083693552188838 1.1210697552065383 1.1337604663303822 1.1464461103214487 1.1591294874104092 1.171812218257966 1.1844952037233845 1.1971788883088803
1.2098634445960177 1.2225488811192882 1.235235114219036 1.247922011273952 1.2606094170024424 1.2732971694619124 1.285985108547283 1.2986730809510698 1.3113609421296453 1.3240485570977392 1.3367358001488059 1.3494225541942773 1.3621087097595994 1.3747941638728376 1.3874788188784224 1.4001625812582041 1.4128453604871165 1.425527067958557 1.4382076160003696 1.4508869170017915
1.4635648826680907 1.4762414234191186 1.4889164479478116 1.5015898629555813 1.514261573083056 1.5269314810568348 1.5395994880754857 1.5522654944611378 1.564929400606382 1.5775911082498484 1.590250522117633 1.6029075519716893 1.6155621151094568 1.628214139363513 1.6408635666485885 1.6535103571132357 1.6661544939324373 1.6787959888211 1.6914348882559298 1.7040712805798053
1.7167053038512032 1.7293371549198693 1.7419670994071814 1.7545954837085587 1.7672227489232653 1.779849448094366 1.7924762696274672 1.8051040642229697 1.8177338916705605 1.8303670651172037 1.8430052536341064 1.8556505655918862 1.8683057947963662 1.880974653419974 1.8936624727995732 1.9063771690009508 1.9191317766393783 1.931949068852322 1.9448715091185538 1.957981709885294
1.9714672011654213 1.985762878497824 1.9990477967516491 0.9964670209877114 1.0100780231985396 1.0241002415454785 1.03779730940505 1.0509054236077289 1.0638042865816657 1.0765985429977583 1.0893371795428717 1.1020455910730407 1.1147379994624533 1.1274224581645673 1.1401035947147717 1.152783932403952 1.1654648214773058 1.17814687102174 1.1908302985357735 1.2035150783907853
1.2162010723187604 1.2288880806624587 1.2415758875921907 1.2542642771806631 1.266953046207533 1.2796420074163832 1.2923309911794132 1.3050198445747079 1.3177084299399717 1.3303966229640283 1.3430843107346688 1.355771389840046 1.3684577645722669 1.3811433452657444 1.393828046763786 1.4065117870198074 1.4191944858286942 1.4318760636909929 1.44455644081182 1.4572355362397538
1.4699132671527437 1.4825895483007008 1.4952642916171413 1.5079374060153128 1.5206087973877056 1.5332783688316356 1.545946021127807 1.558611653503308 1.5712751647154284 1.5839364544978047 1.5965954254159482 1.609251985183893 1.6219060495003021 1.6345575454619734 1.6472064156266475 1.6598526227698602 1.6724961554444864 1.6851370342993466 1.6977753194350826 1.7104111183952055
1.723044595784479 1.7356759828604669 1.7483055905613696 1.7609338204358174 1.7735611840353716 1.786188314678133 1.7988159992877366 1.8114451893236558 1.8240770535882913 1.836712981772552 1.8493546625673043 1.8620040598128442 1.8746634976014187 1.8873355480371345 1.9000230066591672 1.9127284250172107 1.925453369176491 1.938195965389183 1.9509429603243817 1.9636517109835383
1.9762692365482215 1.9884410624341078 1.9986618571726729 0.995329858506067 1.0066184177432413 1.0190344342613868 1.0321845073058389 1.0449843572302109 1.0577236536832875 1.0704228756373988 1.08310137488709 1.0957704051513333 1.108436498538255 1.1211033019501673 1.1337726502942713 1.146445290722342 1.159121335184255 1.1718005485219545 1.1844825344886714 1.197166834012603
1.2098529936104212 1.2225405893123318 1.2352292460685526 1.247918636675751 1.260608482493243 1.2732985463088717 1.2859886276117234 1.2986785557908036 1.3113681851176093 1.3240573897130736 1.3367460596311145 1.3494340973793382 1.362121415091982 1.374807932095837 1.3874935728585276 1.4001782652153825 1.4128619388396761 1.4255445239136222 1.4382259499789367 1.450906144951462
1.463585034293339 1.4762625403419645 1.4889385818006566 1.5016130734010242 1.5142859257520318 1.5269570453958436 1.5396263350957888 1.5522936943873678 1.5649590204291366 1.5776222091965304 1.5902831570682288 1.6029417628609708 1.6155979303757395 1.6282515715215689 1.640902610092561 1.65355098626161 1.6661966618840782 1.678839626627369 1.6914799050852998 1.7041175647126943
1.716752725014909 1.7293855672977512 1.7420163462894864 1.7546454016656226 1.767273172735431 1.7799002120371274 1.79252720332083 1.805154977771319 1.8177845301104114 1.8304170334711185 1.843053823811308 1.8556963776333426 1.8683461397322276 1.881004252791193 1.893670666399483 1.9063424284550818 1.9190092718087182 1.931644688715177 1.9441876451178883 1.9565109242503123
1.9683943332790201 1.979597507682549 1.9981447040524682 1.0048725103293643 1.0154073194606663 1.0275796486095428 1.0396409771140527 1.0519665602752086 1.0644266873223829 1.0769666224033956 1.0895533885215443 1.1021692156221854 1.1148044948801719 1.1274537976890877 1.140113674328619 1.1527817417363586 1.1654561719688108 1.1781355331139973 1.190818657328647 1.2035046056857754
1.2161926148141362 1.2288820743276219 1.2415724948496831 1.2542634877007819 1.266954743373492 1.2796460155408242 1.292337106865181 1.3050278580014567 1.3177181386563235 1.3304078406060365 1.3430968721924497 1.3557851539861763 1.3684726153466742 1.381159191653706 1.3938448220534574 1.4065294475935337 1.4192130096627102 1.431895448673374 1.4445767029463148 1.4572567077714313
1.4699353946298168 1.4826126905716899 1.4952885177524222 1.5079627931357193 1.5206354283795072 1.5333063299263323 1.5459753993265508 1.5586425338292755 1.5713076272830269 1.5839705713954415 1.5966312574086674 1.609289578255159 1.6219454312631443 1.6345987214921383 1.6472493657660208 1.6598972975088115 1.672542472388055 1.6851848749746903 1.6978245261279328 1.7104614918222603
1.7230958919831216 1.7357279121136187 1.7483578123609451 1.7609859437240216 1.7736127541327629 1.78623881359797 1.7988648094051818 1.8114915872013388 1.8241201153416702 1.8367515427604428 1.8493870791453044 1.862028024250092 1.8746754074000087 1.887329749445696 1.899989960245462 1.9126520129562095 1.925306043673703 1.9379343023245827 1.9505147467105366 1.9630337838262717
1.9755117268411875 1.9878889132942283 1.9975461346145948 0.9940105495322377 1.0140880954274492 1.0236145660478313 1.0345139879018994 1.0463092561865692 1.0584892449788474 1.0708696877471262 1.0833610559840912 1.0959177921642698 1.1085156062750634 1.1211408586778446 1.1337853246634189 1.146443688628358 1.1591122523062116 1.171788341386168 1.1844699399276457 1.1971555241450804
1.209843920062566 1.2225342340290393 1.2352257791141006 1.247918034146315 1.2606106009960327 1.2733031778590886 1.2859955341780698 1.2986874936853594 1.311378919972039 1.3240697062400621 1.3367597671070437 1.3494490325733857 1.3621374433077984 1.3748249470526748 1.3875114957888395 1.40019704348972 1.4128815443009868 1.4255649510465513 1.438247213985157 1.4509282797689376
1.463608090571854 1.4762865833699104 1.4889636893656648 1.501639333558556 1.5143134344704052 1.5269859040427571 1.539656647729854 1.5523255648182637 1.5649925490116547 1.5776574893271682 1.590320271357779 1.6029807789636774 1.615638896462687 1.6282945113985419 1.6409475179648503 1.6535978211766427 1.666245341844493 1.67889002246696 1.691531833978581 1.7041707835918616
1.7168069232838734 1.7294403596882546 1.7420712638733964 1.7546998833576524 1.7673265523492858 1.7799517059790069 1.79257589004623 1.8051997762683567 1.817824170107532 1.8304500184650827 1.8430784097946853 1.8557105432329286 1.8683477012209604 1.8809911170409754 1.893641929483802 1.9063010901123223 1.9189702006667333 1.931654475591027 1.944375067933757 1.9572124721807105
1.970400299167696 1.9842992199905105 1.996952876774191 0.992515616420829 1.0032904797186162 1.0134483794374805 1.026253914337068 1.0394014254906587 1.0520495139604535 1.0645688194141676 1.077083870406346 1.0896294400128996 1.1022093976333607 1.1148188648029518 1.1274515603639041 1.1401019429102932 1.152765550106781 1.1654389237917584 1.1781193983613998 1.1908049429722023
1.2034940096925033 1.2161854311385196 1.2288783286898102 1.2415720477883845 1.2542661024440755 1.2669601346704888 1.2796538814434426 1.2923471502150012 1.3050397998418721 1.3177317264304431 1.330422852621683 1.3431131196246984 1.3558024812339582 1.3684908993297682 1.381178340453378 1.3938647731640696 1.4065501659641686 1.4192344856380696 1.4319176958975683 1.4445997562582482
1.4572806210966363 1.4699602388558555 1.4826385513816265 1.4953154933815054 1.5079909920095276 1.5206649665865666 1.5333373284743497 1.5460079811285616 1.5586768203640797 1.5713437348734733 1.58400860704816 1.596671314160677 1.6093317299743675 1.6219897268573484 1.6346451784772666 1.64729796317462 1.6599479680654028 1.6725950940256076 1.6852392614345997 1.6978804171086173
1.7105185415603377 1.723153658315415 1.735785841672107 1.7484152295973496 1.761042029065974 1.7736665363542596 1.7862891332567787 1.7989103245695466 1.8115307115134491 1.824151065721715 1.836772255058744 1.8493953829981526 1.8620216296987264 1.874652491543476 1.8872895109077514 1.8999346816130105 1.9125901437500081 1.9252587823784093 1.9379423884546425 1.9506361539566668
1.9633123895558107 1.9757112530821246 1.9867901827673526 1.99621812630114 0.9909585459793308 1.0029153074098722 1.0224332675618528 1.0338149204338427 1.0459488665197167 1.0583117876671657 1.0707774347459054 1.0833040005580503 1.0958735616311546 1.1084757837363777 1.1211032405490546 1.1337501356885906 1.14641178646968 1.159084466473956 1.171765205747451 1.184451699240511
1.1971421590791291 1.2098352340311367 1.2225299038809287 1.2352254161941152 1.2479212174758862 1.2606169089140677 1.2733122046466854 1.286006903507533 1.2987008650674199 1.3113939928606337 1.324086221140529 1.3367775054015605 1.3494678151777757 1.3621571287852574 1.3748454293581707 1.3875327018748798 1.4002189308710267 1.4129040986545396 1.4255881838767157 1.438271160362155
1.450952996128419 1.4636336525498554 1.4763130836366951 1.4889912354136503 1.5016680453926892 1.5143434421434323 1.5270173449724627 1.5396896637303044 1.5523602987721818 1.5650291411064714 1.5776960727728138 1.5903609675007007 1.6030236917081973 1.6156841059099687 1.62834206661073 1.6409974287698048 1.6536500489161923 1.6662997890111138 1.6789465210949486 1.691590132841057
1.7042305338839285 1.716867663201315 1.729501496931088 1.7421320575518575 1.754759422628772 1.7673837358826288 1.780005216478323 1.7926241728061987 1.8052410137709451 1.8178562672972751 1.830470600197286 1.8430848442879615 1.8557000421632366 1.8683174885397869 1.880938853380036 1.8935663153036129 1.9062030246550876 1.9188539213275215 1.931527985956358 1.9442403930006011
1.9570154210143005 1.9699372262375066 1.9830421349924292 1.9955019079943705 0.9891955413298199 1.0006375451074867 1.013321452719844 1.0265317323833798 1.0391566161944998 1.0517431452115487 1.0643102063530454 1.0768858291626628 1.0894801317468774 1.1020952851708747 1.114729944152973 1.1273813372165276 1.140046314708297 1.1527218579106049 1.1654053118731342 1.1780944640664928
1.1907875368163783 1.2034831451897676 1.2161802339059125 1.2288780177863494 1.2415759231225247 1.254273540277532 1.2669705826510564 1.279666855269208 1.2923622295081199 1.305056624254451 1.3177499914612887 1.3304423055346621 1.3431335554239565 1.355823738828728 1.3685128579122046 1.3812009161241454 1.3938879158099031 1.4065738563793453 1.4192587328689619 1.4319425347792394
1.4446252451044381 1.4573068394976418 1.4699872855332736 1.4826665420436094 1.4953445585171206 1.508021274555473 1.5206966193937987 1.5333705114958904 1.5460428582427144 1.5587135557396745 1.571382488775329 1.584049530972459 1.596714545180659 1.609377384169755 1.6220378916899598 1.6346959039800675 1.6473512517924973 1.6600037630533735 1.6726532661557156 1.6852995941439597
1.6979425894074016 1.710582109821033 1.7232180343935706 1.7358502722327005 1.7484787673198674 1.761103513028115 1.7737245513843445 1.7863420011717073 1.7989560420278492 1.8115669752373964 1.8241751752896094 1.836781218676567 1.8493857739461088 1.8619898418099219 1.8745945264788015 1.8872013737764821 1.8998118168634712 1.912427112421054 1.9250458411576747 1.9376585485504487
1.9502214176141417 1.9625861250627357 1.9745144078981232 1.9854684126163835 1.9946275093309418 0.9991103658574602 1.009270674341075 1.0200441222352672 1.032552751638773 1.0451332997798037 1.0577631016611546 1.070395641463138 1.0830308293270992 1.0956736291448297 1.1083269529428512 1.1209913457314173 1.1336658052396198 1.1463486469456172 1.1590379900236571 1.1717320832470992
1.184429407144891 1.197128733603161 1.2098290979734323 1.2225297768163337 1.2352302388119316 1.2479301098486921 1.2606291338970224 1.273327145187781 1.2860240429129337 1.2987197731235463 1.3114143139847463 1.3241076651932655 1.3367998398870284 1.349490858822394 1.362180746053958 1.3748695257915846 1.3875572200638384 1.4002438469651333 1.4129294193015929 1.4256139435108268
1.4382974187635003 1.4509798361832316 1.4636611781409514 1.4763414175948997 1.4890205174588032 1.5016984299896063 1.5143750961933755 1.5270504452542866 1.5397243939974061 1.5523968464017606 1.5650676931862342 1.5777368114975197 1.590404064736765 1.6030693025698584 1.6157323611752055 1.6283930637923045 1.6410512216423092 1.6537066353001084 1.6663590965954869 1.6790083911284732
1.6916543014486378 1.7042966109807873 1.716935108653004 1.7295695943534712 1.7421998850010114 1.7548258215941368 1.7674472769021483 1.7800641646917368 1.7926764507294914 1.8052841665020918 1.8178874291873046 1.8304864644013852 1.8430816451976595 1.855673522968074 1.86826288364938 1.880850743677104 1.8934383455399026 1.9060269345210763 1.9186173863711773 1.9312093641750534
1.9438023222081897 1.9563841966099973 1.9688964343052537 1.981646169036912 1.9937803909789746 0.9873215684652249 0.9977815432102187 1.011233803889829 1.024906927589314 1.0381815771165972 1.0510672481556957 1.0638234835367464 1.0765271058102621 1.0892123586214773 1.1018943657457976 1.114579287023451 1.1272690695438268 1.139963691060646 1.1526623295419187 1.1653639044281818
1.1780673624437104 1.1907717848706856 1.2034764307289794 1.2161807319701883 1.228884274672192 1.2415867723706568 1.2542880393522762 1.2669879668288369 1.27968650245262 1.2923836340899713 1.3050793769199183 1.3177737637494151 1.3304668377029967 1.3431586468891716 1.3558492404962748 1.3685386659702112 1.3812269669567507 1.3939141817850345 1.4066003423193245 1.4192854730543467
1.4319695903639236 1.4446527018384927 1.4573348056664859 1.4700158900286564 1.4826959324851325 1.495374899342978 1.5080527449983976 1.5207294112528662 1.5334048266069789 1.5460789055401147 1.5587515477882883 1.5714226376374154 1.5840920432545422 1.5967596160862731 1.6094251903601962 1.6220885827359963 1.6347495921551178 1.6474079999648679 1.660063570354013 1.6727160512549548
1.6853651755998547 1.6980106634194603 1.7106522239360527 1.7232895595871591 1.7359223682346625 1.748550350979959 1.7611732120106605 1.7737906755868247 1.7864024776404335 1.7990084057189324 1.8116082709712935 1.824201999769068 1.8367895664272127 1.8493711796470373 1.8619471356869122 1.8745181158096038 1.8870848224779417 1.8996481462144297 1.9122078193011744 1.9247604112341066
1.9372915110355557 1.9497626906385968 1.9620141707314576 1.9734651418718459 1.984013798744947 0.9853462132262794 0.9940932953727777 1.0068921417924883 1.019086311676456 1.0317496250104543 1.0445465765497037 1.0572954481598626 1.0700203224426463 1.082733130465345 1.095441420952102 1.1081490752126053 1.120857677180396 1.1335675851441698 1.146278536985891 1.1589900311908654
1.1717015049199653 1.184412444682028 1.197122421723269 1.2098311109985806 1.2225382829019202 1.2352437937904461 1.2479475686177814 1.2606495865551042 1.2733498661155518 1.2860484536294257 1.29874541332627 1.3114408199560736 1.3241347530458312 1.3368272927590992 1.349518516864302 1.362208498592898 1.3748973051121038 1.387584996435646 1.4002716246219842 1.4129572331535665
1.4256418564173392 1.4383255192293578 1.4510082363626748 1.463690012049748 1.476370839439579 1.4890506999963258 1.5017295628310896 1.5144073839622794 1.5270841055030175 1.5397596547765127 1.5524339433627843 1.5651068660826555 1.5777782999278702 1.5904481029499304 1.6031161131249934 1.6157821472179434 1.6284459996766343 1.641107441594151 1.6537662197902157 1.6664220560619931
1.6790746466852873 1.6917236622020646 1.704368747642095 1.7170095231071723 1.7296455850966441 1.7422765081368594 1.754901847901724 1.7675211443709011 1.7801339286451847 1.7927397294508969 1.8053380891631596 1.8179285797844567 1.830510842345696 1.8430846293236554 1.855649900336809 1.8682069365167848 1.8807565807435975 1.893300590071901 1.9058423826044826 1.9183884666903128
1.9309517254213553 1.9435592101826211 1.9562985003667632 1.9692342925941737 1.981180087024315 1.9927526933289532 0.9830614290153069 1.0027310357728638 1.0140980676699136 1.0259052630498948 1.0382412683327409 1.0508424270074819 1.0635289006401396 1.0762468216904133 1.088974737716445 1.1017048127927096 1.1144342623983925 1.12716205859026 1.139887819997579 1.152611350402008
1.1653325416735105 1.1780513071968683 1.1907675984477355 1.2034813934789437 1.21619270795324 1.228901587609412 1.2416081073395304 1.2543123632153064 1.2670144671883357 1.2797145404834274 1.2924127086895258 1.3051090974016615 1.317803829067147 1.330497020592275 1.343188781708268 1.355879213850994 1.368568409441048 1.3812564514177526 1.393943412935621 1.4066293571410913
1.4193143369742531 1.4319983949521393 1.4446815629035443 1.4573638616331093 1.4700453004990048 1.4827258768927936 1.4954055756132034 1.508084368127558 1.5207622117159534 1.533439048494019 1.5461148043105288 1.558789387516405 1.5714626876019027 1.584134573699598 1.5968048929516983 1.6094734687434926 1.6221400988059145 1.6348045532023945 1.647466572204954 1.660125864118076
1.6727821030127894 1.685434926596849 1.6980839338964309 1.710728683667767 1.7233686919088727 1.7360034320668463 1.7486323314569656 1.761254776592518 1.773870105580853 1.7864776270587377 1.799076602149576 1.8116662967246842 1.8242459438566538 1.8368148716174195 1.849372447825117 1.8619183778114616 1.8744527168293483 1.8869766275112927 1.8994929994404808 1.9120089418522315
1.9245399474662892 1.9371211270848805 1.9498315356233318 1.9629871270777317 1.977784300899956 1.9917146635903857 0.9807939854456912 0.9933332823016585 1.0065102628297267 1.0191469777411477 1.0316634114831955 1.044287551969669 1.0569949095595432 1.0697367107891782 1.0824914893383077 1.0952480258770332 1.1080013253095486 1.1207495400223886 1.133492225059218 1.1462295354978964
1.1589618230443726 1.1716894819837236 1.1844128840524815 1.1971323652530872 1.2098482283668053 1.2225607489880155 1.235270182522429 1.2479767675021836 1.2606807283938146 1.273382276101268 1.2860816084454878 1.2987789099232225 1.3114743517141931 1.3241680916302665 1.3368602742873559 1.349551031340776 1.3622404818195488 1.374928732472888 1.387615878107883 1.4003020018732344
1.412987175467392 1.425671459248666 1.4383549022337256 1.4510375419731656 1.463719404296165 1.4764005029176204 1.4890808389020758 1.5017603999788642 1.5144391597025293 1.5271170764515567 1.539794092257098 1.5524701314515044 1.5651450991243572 1.5778188793713572 1.5904913333192658 1.6031622969080999 1.6158315784112927 1.6284989556739222 1.641164173054727 1.6538269380557902
1.666486917651346 1.6791437342985844 1.6917969617280224 1.7044461204329884 1.7170906732300844 1.7297300204778636 1.7423634961585044 1.7549903632422637 1.7676098118277839 1.7802209552720651 1.792822833298442 1.8054144101498253 1.8179945880680628 1.8305622111477482 1.843116099474747 1.8556550701512908 1.868178016139806 1.8806839893089085 1.893172424236779 1.9056435240678622
1.9180991650900476 1.930544682329906 1.9429911537880526 1.9554328003141672 1.9679641021438516 1.9799910264443288 1.9906783274701243 0.97817914351315 0.9887805646656055 0.9995432109515973 1.01226882858626 1.024978889497329 1.0376786314845046 1.0504273841651501 1.0632077263766173 1.0759967911963366 1.0887838092248365 1.101563516237037 1.1143339665558076 1.1270949944710122
1.1398471910789465 1.1525914470131793 1.1653286570550931 1.1780596563994967 1.1907851615225342 1.20350579471684 1.2162220832176194 1.2289344855806639 1.2416433990888807 1.2543491749711042 1.2670521241728407 1.279752524934153 1.292450626514223 1.3051466531253952 1.3178408064409808 1.3305332679613944 1.3432242008171384 1.3559137513700183 1.3686020505167125 1.381289214788891
1.3939753472338325 1.4066605381011963 1.4193448653370768 1.432028394894006 1.444711180859717 1.4573932654077015 1.4700746785702814 1.4827554378335062 1.4954355475511762 1.5081149981732676 1.5207937652813734 1.5334718084209114 1.5461490697162705 1.558825472250915 1.5715009181897701 1.5841752866157714 1.5968484310471374 1.6095201765953524 1.6221903167212095 1.6348586095361823