TITLE = "Written by meshio v4.3.11"
VARIABLES = "X", "Y"
ZONE NODES = 1109, ELEMENTS = 2083,
DATAPACKING = BLOCK, ZONETYPE = FETRIANGLE
0.0 2.0 6.123233995736766e-17 1.0 1.0431949467976935 1.090787971065538 1.1394702117410709 1.1900113864863902 1.2416323027185532 1.2938574487205614 1.346389098229119 1.3990361664448758 1.4516659387955573 1.5041744178603107 1.5564684939243134 1.6084555200546504 1.6600387148506492 1.7111199221630133 1.7616017390312624 1.8113872723923259
1.8603646891939642 1.9086432311785602 1.957251612030698 0.9987942557974844 1.0560535012728214 1.109012977351118 1.1615297167846026 1.2141895982740343 1.2669806553435101 1.3198411924967492 1.3727125513609875 1.425538303795729 1.4782619908471981 1.5308244844752958 1.5831618305039925 1.635202852165842 1.6868697747258365 1.7380848567429792 1.7887928903880954 1.8390299524442988
1.8891851172503373 1.9410158640563606 1.9994060614054534 0.9945295916746522 1.034732505399514 1.0815474100678037 1.1336319032931577 1.186753663632827 1.240003493560216 1.2931874962732162 1.346285563939774 1.3992971061555577 1.45221067747491 1.5050043835228328 1.5576477255628651 1.610103286276999 1.6623242031784482 1.7142478021100656 1.7657801717404704 1.8167577798077086
1.8668719567170138 1.9154618940776178 1.96152892803368 0.9883435915057457 1.0442009296040322 1.1028447238689403 1.1586690275092586 1.2129242021833322 1.266529550300892 1.3198402496737072 1.372992218983633 1.4260350250347673 1.4789818566600628 1.5318317875838954 1.5845790385693155 1.6372196323203194 1.6897567771839868 1.7422121097004597 1.7946474079666674 1.8471652719754748
1.899626987079901 1.950363687293582 1.9972601141934625 0.9789246772530038 1.0266976395436191 1.078410995231109 1.1328090285730472 1.1867788549990888 1.2403068877215917 1.2935961480926035 1.3467523716020913 1.399820420549205 1.4528190402655554 1.5057557607904588 1.55863736888987 1.6114751424839826 1.664292910422941 1.7171419249356676 1.7701477088998072 1.8236596807714596
1.878583044848068 1.9363058382581513 1.9939595514704471 1.0097583729295723 1.0591451644091516 1.1099297399518442 1.1621246948507642 1.2148558336895305 1.2677643062005242 1.3207230791951243 1.373682627562665 1.426622321069395 1.479535245744266 1.5324216043488479 1.5852890604546455 1.6381514493068254 1.6910251310762388 1.7439120729898883 1.796757133911702 1.8493420465615347
1.9007243188304592 1.9471310015795615 1.9898232343254156 0.9658455215731377 1.040441492559631 1.08879966457489 1.1387484094137983 1.1902013227189314 1.2424257966276628 1.2949994367937983 1.3477197160218244 1.4004962775374616 1.4532891694493577 1.5060826997932242 1.5588731155250612 1.6116671007486538 1.6644776278915348 1.7173140953757986 1.7701531180914805 1.8229047492607802
1.8756013868106323 1.9288885201824362 1.9838538522679645 0.9512140371005805 1.0029965872995619 1.0606804123702902 1.1131310455249197 1.1650078885509845 1.2171204299860705 1.269458569201993 1.3219402634437867 1.3745026067325925 1.4271080336521484 1.4797341606313588 1.532367532561807 1.5849993116601924 1.6376251695039974 1.6902265055439036 1.7427089290142503 1.7947040268201258
1.8451600337318 1.8924894499800584 1.9358361995655962 1.9773711771204907 0.9335950820015024 0.9829675452437258 1.032416127744598 1.0867903993367738 1.1395293404328395 1.1918040186677628 1.244049963823523 1.2963387470753829 1.3486770165704696 1.4010562468821386 1.4534650028351754 1.5058896675772229 1.558315412901362 1.6107303183863224 1.6631420529538836 1.7155804652226914
1.7680872191680865 1.8205452471040544 1.8718729233367148 1.9201502527719743 1.9687208603034658 0.9132118168062108 0.9619544087328294 1.0106290585163582 1.060933226880559 1.113920164687405 1.1664933162882432 1.218754957286282 1.270907258767588 1.3230348374415812 1.3751738322411127 1.4273343943696661 1.4795121019583528 1.5316903454969364 1.5838433890917167 1.6359489853116864
1.6880429255073572 1.7402675343068998 1.7930227684550597 1.847151173289299 1.9027155417181691 1.9593113946290959 0.9391776800965894 0.9877255053308487 1.0372827499499084 1.0887213079919555 1.1412995077705201 1.1936068112697749 1.245656748125096 1.297589512797265 1.3494865955304136 1.401385850107925 1.4532967783827215 1.5052070908452777 1.5570812301986354 1.6088530634123588
1.6604323821763642 1.7117886204470112 1.7629216214346957 1.813852602434954 1.8638729407151966 1.9059030399133547 1.949249858205935 0.8902453002747508 0.963549028425036 1.012746200433186 1.064455604092394 1.1165721682638814 1.1687461424588854 1.220649608330181 1.2723711347748066 1.3240175890863957 1.3756484830333378 1.4272882656363308 1.478934925437261 1.530561246030776
1.5821014216873877 1.6334261662441831 1.6843469845671286 1.7348770260899833 1.7852561312842266 1.836385684226221 1.8868797041646508 1.9363049147123153 0.8650457633734863 0.9148415658579642 0.9870583238639877 1.0403943442160868 1.0927585724448805 1.1444846010045018 1.1960320517391003 1.247443990383132 1.298793676897313 1.3501365983551292 1.4015000270473343 1.452888605067955
1.5042891982675002 1.5556601611736847 1.6068923591150222 1.6577067361936544 1.7075477888041262 1.756175379835988 1.8032990101514763 1.8486942329495872 1.9228184067146645 0.8375178630992215 0.8880162870791815 0.938303881371951 1.0178739859281216 1.0700898704958983 1.1211423646539778 1.1719894001969537 1.2228829641365797 1.2738338820942408 1.3248448918406623 1.3759181464910268
1.427050360987227 1.4782371397688694 1.5294767883028828 1.5807648440043587 1.632040928788664 1.682961678901823 1.7324570731383067 1.7808443426989269 1.828934017205738 1.8786002888036581 0.8076182455242523 0.8585367694084427 0.9098539890509777 0.9611378320523258 1.0015824849927233 1.0497895681900473 1.0988155696121802 1.1484996899983586 1.1986328700572226 1.2490737305977104
1.299711952073672 1.3504865319768675 1.4013619733123404 1.4523208986261822 1.5033662752608983 1.5545401881611247 1.6059473866393488 1.6577503530525883 1.7097337052656265 1.759295204849725 1.8083837582246152 1.8584726088735308 1.9063589431947492 0.7751612620257823 0.8258589062317776 0.8769501507749125 0.927000326591846 0.9723725845004869 1.0239621424479695 1.0741073545102786
1.123958104395874 1.1739432544068351 1.2241408764460187 1.2745359220474763 1.325086102815468 1.3757525147025378 1.426504969478071 1.477328566359781 1.5282412198716768 1.5793330196700965 1.6308522392907248 1.6834071957481433 1.7377768007775412 1.7876065649052562 1.8388257620206678 1.8890495825425497 0.7406459458297533 0.7922028297119127 0.8449284689943356 0.8961821583514514
0.9449398785670511 0.9952017030828514 1.0471628138484494 1.098029015368301 1.1484372713600697 1.1987585610138045 1.249129950057932 1.2995944824443708 1.350149084370418 1.4007721907562847 1.4514324596636246 1.502105516900694 1.5527943003176763 1.603580060304226 1.654746271661877 1.7072653985132955 1.7658704385238686 1.8185196226177975 1.8707084429607541 0.7049411519417039
0.7586325422936135 0.8143953498331935 0.8672097048177742 0.9177898509847054 0.968236656489915 1.019477131902696 1.0711741276378748 1.1222281112631045 1.172901064533508 1.2234331458959447 1.2739471766444064 1.3244973360333385 1.3750925571640846 1.4257076694972661 1.4762916557241 1.526776296380145 1.5770768946558844 1.6270839712259393 1.6766361276581379 1.7256462644273582
1.8003314647924242 1.851352064850369 0.6636540186424295 0.7081674747761332 0.7501552801476171 0.7948655396639849 0.8432316825459936 0.892614091587837 0.9425293757404536 0.9931310439340553 1.0443066071210296 1.09567482654436 1.1467123805920125 1.19749152868153 1.2481472590711165 1.2987710567255852 1.3494179527009034 1.4000984159215948 1.450782683640098 1.5014121744452509
1.55192487285578 1.6022858012335564 1.6525658418618765 1.7031870309018493 1.7549302450624693 1.8303574071376796 0.584281172185341 0.6230083544581688 0.6699904024129612 0.7184762192058509 0.7691254307048532 0.818006353876259 0.8673271464325925 0.9170966802098042 0.9673774081265224 1.01814657096863 1.0692432004144226 1.1204181400777564 1.1714136208156587 1.222242212235221
1.272980087673492 1.323701191513755 1.374467461147922 1.4252934951430036 1.476144013802043 1.5269655859458637 1.5777372783254233 1.6285445736308137 1.6797131794732296 1.731672632741156 1.7818993127578628 0.4896730220282205 0.5373426261711483 0.587143295470302 0.6352984483251473 0.6872637300368036 0.7395165260344826 0.7912179893503501 0.8413785221510117 0.8914553339855208
0.9417520139471571 0.9923563845637118 1.0432356249534893 1.0942832820136392 1.1453537160856828 1.1963192212566645 1.2471765441734015 1.2979748751223985 1.3487840443386907 1.3996922321189453 1.4507141177174563 1.5017935475949238 1.5528679660687892 1.603946291132202 1.6551735152588465 1.7066653684005328 1.7573689739638063 1.806726330733793 0.39946685537845034 0.4474443735208282
0.5246881081445293 0.5682666876510556 0.6179662919346809 0.6640510103429228 0.713591677190731 0.7644663352529935 0.8153935681776234 0.865792949052999 0.9162024996244428 0.966777663282083 1.0175446700569497 1.0684675478895864 1.119477036991075 1.1704905315381446 1.2214397807287185 1.272315100595475 1.323148451037406 1.37401945354722 1.4250741593630276 1.4763086067273434
1.5275982131001244 1.5788315084267337 1.6300054721234198 1.6811660748002406 1.7319310394050609 1.7819398184442832 0.30769065049974387 0.3562141613824771 0.43901989490792365 0.48783200519987774 0.539685707302278 0.5910514220605989 0.6404549817606039 0.6890973280683914 0.7390458617611081 0.7895998981666683 0.8402537024716635 0.8907874534701467 0.941385868030214 0.9921069792548557
1.0429486605795617 1.0938814187959218 1.1448643979643467 1.1958521689847896 1.2467998367190236 1.2976789251962586 1.348500371704529 1.3993609853289057 1.4505345226665909 1.5019323437354646 1.5532587476412685 1.6043105575021603 1.6551346637539064 1.7057742393873365 1.7560205883668178 0.10360758775909859 0.15501415359776807 0.20586252048343487 0.25488134957914454 0.2947054528501174
0.3491532284674611 0.40097333977043725 0.46014004827663785 0.5103911014141684 0.5633653479812714 0.6145041027621397 0.6644617609538056 0.7141889400688719 0.7644281323381168 0.8149477818724964 0.8655641622089287 0.916198609076407 0.9669072005507822 1.0177029189177809 1.068575477207306 1.1195077151807076 1.1704820039169843 1.2214788793870353 1.2724471710931746 1.3233098143141961
1.3740275692803312 1.4247133055916248 1.4759261900042102 1.527294452454568 1.5781638884273816 1.6284615629992705 1.6787427128314771 1.7288846565643532 0.0 0.04856290429070765 0.08431119987196638 0.13429590295987437 0.18657200375512767 0.2388578898211051 0.2839068288594389 0.3335214570121759 0.3835746328750165 0.43287538130455816 0.48550012340428095 0.5366070954423974
0.5883321075246206 0.6391660003931953 0.6894163819919795 0.7396033201446588 0.7900128174682874 0.840578744442317 0.8912334769606528 0.9419432997420664 0.9927170241553177 1.0435508781567808 1.0944371770266093 1.1453758959364069 1.196375298494121 1.2474423304463653 1.2984884919301547 1.349319616548857 1.3997681337664571 1.449921025605834 1.5009923919631187 1.5516971123859733
1.6010942029613229 1.6506949412434364 1.700425353932472 0.0 0.045187183315871786 0.1010130554795732 0.15882925336648757 0.21108710957859836 0.2585051670710737 0.3120645766730401 0.3625000635561571 0.4118514646877243 0.4612593036686699 0.5122466349436048 0.5630165505482136 0.6139729508368804 0.664569331110392 0.7149460251811933 0.7653385059048077 0.8158614809208938
0.8664947477007259 0.9172067964485688 0.967974299346356 1.0187902217457383 1.0696474944244128 1.1205476682492232 1.171518030237584 1.2226051552959394 1.2738764486318317 1.3251715711507672 1.3760428008376078 1.4259572564490104 1.4747464146787752 1.524972402183277 1.5728789884863914 1.6214291586070042 1.6705101393107948 0.0 0.04652239794621939 0.08763925542895493
0.13585816581026738 0.18661987831489632 0.23571306163109543 0.2866693878625632 0.3387976649830016 0.38901440301622076 0.4385754572787284 0.488389616193051 0.5388325099063148 0.5893244825809828 0.6399006023282892 0.6903798176461582 0.7408272300096379 0.7913408483550373 0.841960532429428 0.8926706703827165 0.9434453678238445 0.9942626674437467 1.045112611031037 1.095991731924509
1.1469151337409782 1.1979569106540784 1.2492331113421862 1.3009976598226465 1.3530652692863223 1.4045903645839706 1.4538603562060448 1.4983694871137438 1.5423206528917432 1.5901988610171212 1.6389759194128881 0.0 0.05133971324984103 0.10885341409043912 0.16062810957239984 0.21129021829991906 0.26223213382939875 0.3135702529167015 0.3647843013738418 0.4149751380885705
0.46485573286866966 0.514874194249975 0.5651525792704087 0.6155088306341977 0.6659406765216493 0.7164026306031852 0.766928950107579 0.8175538138246647 0.8682787552349462 0.9190777972257341 0.9699219444537976 1.0207883282681092 1.0716728562290945 1.1225753302905668 1.1735195654064536 1.2246583810697607 1.2762061223831942 1.3289367124611564 1.383138708383805 1.439102148676054
1.4966567966591449 1.5525400353551284 1.605751078910796 0.0 0.04004829929052194 0.0850973174722904 0.13599704867541193 0.1865705618949551 0.23750231400727312 0.2886593543814317 0.3397651489528113 0.3905561260751087 0.44080932416371443 0.4908885224301382 0.5410205316133884 0.5912675822681579 0.6415926485756329 0.6920125261707142 0.7425335693127568 0.7931738808545913
0.8439344720277093 0.8947885032839619 0.9456946365694829 0.9966181910799126 1.0475365232613223 1.0984605836123702 1.1493767063856357 1.2002752524601932 1.2514088507941006 1.3029225663361697 1.3562852530372156 1.4113456119211834 1.4670357218663412 1.5200534020052154 1.5731325769248126 0.0 0.05386421156143891 0.1076458224567311 0.16035395340179623 0.2120095788851686
0.2634104809635775 0.31462632067407365 0.36558972357755176 0.4162340149848292 0.46655484807054826 0.5167539186018644 0.5669605236296972 0.6172305992146773 0.6675876775412171 0.7180732707818498 0.7687142689708807 0.8195166675673577 0.8704549002652996 0.9214732313508495 0.9725086739524778 1.0235256045976362 1.0745034117408787 1.1254951323166165 1.1764280272420469 1.2271533753554986
1.2781466265003958 1.3290729965839247 1.3827101388438916 1.4369440777936655 1.488641265529984 1.5399232597143544 0.0 0.04009002575311588 0.08602746639029092 0.1357125706413238 0.18681978567227409 0.23810661388196575 0.2893577562171897 0.3404390588101564 0.39127886790205557 0.44185836038381165 0.4922225808144863 0.5424905803994405 0.5927508188708048 0.6430638759029297
0.6934881235744383 0.7440898126785822 0.7949072655682501 0.8459284324470662 0.8970999107057483 0.9483256510870368 0.9995125302423834 1.050641370323324 1.1016970862370767 1.1528618020048058 1.2038831613404548 1.2541840429908362 1.3048947841706535 1.3540277355074055 1.4070721367941983 1.4559017860010528 1.505056069084214 0.0 0.05442999492892469 0.10822358951493227
0.1605290843212764 0.21233850853708064 0.26382441374192755 0.31507475094297777 0.36608889424680185 0.4168614950286967 0.467414408140697 0.5178028174623018 0.5681093924572522 0.6184055307265884 0.6687625466902802 0.719269368774298 0.7700276775756397 0.8210811314730618 0.8723868476789916 0.9238597614074834 0.975341629927387 1.0266885137151873 1.0779578891727164 1.1291339375805483
1.1808180609398904 1.2323140079756443 1.281818780998341 1.3328216480641024 1.3781404294975288 1.4218305346711384 1.4683590377183402 0.0 0.040176192429334616 0.08634925594657038 0.13611342847618452 0.18706469175063709 0.23835503310522552 0.28961959904778967 0.3407366564026177 0.3916548921497507 0.4423661597764869 0.4928946905252637 0.5432881187792352 0.5936071103225319
0.6439161345972988 0.694300159389574 0.7448904986794005 0.7958455330633804 0.8472045492540977 0.8988640002117295 0.9507203092664847 1.0025043739335557 1.0539657983162267 1.1054199836441942 1.156748977909518 1.2098674642678273 1.263428693685283 1.312305447654389 1.3748275057904265 1.429083170333805 0.0 0.05465893165942762 0.1085442116035302 0.16081637738768068
0.21250939982706246 0.26395302459630526 0.3152005582951408 0.36625393219171004 0.41710882610025435 0.46777587677821725 0.5182831597832226 0.5686657906063446 0.6189709898521577 0.6692591078045683 0.7196348393880293 0.7702939358509872 0.8214958384855616 0.8732418802597914 0.9253089765271495 0.9776433384499237 1.029758338764497 1.08111864197012 1.1328166081815407 1.183926901978092
1.2396360975514586 1.2985379380915842 1.3446377911891263 1.3927418996119116 0.0 0.040216683371748954 0.08648539181389339 0.1362839044982266 0.1871842259613931 0.2383798107724207 0.28959209540866937 0.34070221301466963 0.39166226833882334 0.44245509308681724 0.49308635516488386 0.5435719829606268 0.5939255819240422 0.6441860708319171 0.6944072588500909 0.7447140818417256
0.7954061661878589 0.8469270307964258 0.8991531243079982 0.9516102130713722 1.0045366881152749 1.0570121391898848 1.1077059321876148 1.1600017350972294 1.209378595070591 1.267290452515059 1.317883753884637 1.3531045908444435 0.0 0.054745501263259444 0.10862418887286346 0.16084009149083256 0.2124390751397724 0.26377803004245454 0.3149590104044316 0.36600069589846507
0.41690776152228515 0.46767250739797245 0.5182885346221743 0.5687538295493297 0.6190591765661708 0.6692479285695659 0.7193433617009359 0.7694815240996987 0.8201319457849252 0.8720886069604927 0.9248861918265184 0.9774910228944494 1.0311515709959511 1.084285699075473 1.133369744508467 1.1888363461645493 1.2343718924445497 1.280034669086368 0.0 0.04020227791784526
0.08644471360723285 0.13618860264370627 0.1869993324815775 0.23806902517916007 0.28913595050890234 0.3401459127883902 0.39109517921706793 0.44198804717602097 0.49276695405809706 0.5433755633390291 0.5938247413428827 0.6440737009794276 0.6941940551224303 0.7440869192190043 0.793878282060095 0.8443421053857089 0.8969215417439046 0.9503081380534311 1.0020948022775478 1.0565075697904691
1.1112194311747334 1.157617482778869 1.2020985038879446 1.2390109501562654 0.0 0.054648235738665826 0.10841780954285841 0.16053196487990526 0.21200978169398235 0.26314982750235677 0.3140744090896068 0.3649627259277459 0.415911179228296 0.4669095677261083 0.5177283149750538 0.568312315083514 0.6187858249519559 0.6690286636030942 0.7191832855065606 0.7687263192368133
0.8178480622419517 0.867859743392122 0.9213168403331572 0.9747046202470007 1.0228242080731091 1.0769545322984624 1.122509889542678 1.160148784582161 0.0 0.04014009076240367 0.086163321064893 0.13573547840651431 0.18645835709791506 0.23735991471752207 0.28803645340092143 0.3385530761365996 0.3893543515982671 0.4404980798346913 0.4916951855005236 0.5425013343010433
0.5929821123700191 0.6436871751578771 0.6941439915317096 0.7446590437202418 0.7934832171673262 0.8414383761080855 0.8905724211615687 0.9445887459446978 0.9929534953122897 1.038698282887493 1.08093065577606 0.0 0.05431911323231506 0.107761425832432 0.15981428055224797 0.2112696461080462 0.2620603237674632 0.3121196530692451 0.3622061486727674 0.41338773257445477
0.46487004248837666 0.5163241517631347 0.5668418809787076 0.6170977075835173 0.6688032625053115 0.719882071559202 0.7718452169059878 0.8193139378151992 0.8660583698841602 0.9125488185887463 0.9549533739466223 1.03571849988107 0.0 0.04010523373887607 0.08569527201957071 0.1348374855007098 0.1856266082526297 0.2364840224988896 0.2861494631464669 0.334944751010222
0.3852967381209576 0.4371847881067893 0.48899838077803526 0.5405541140097124 0.5900633522866078 0.6403520221314232 0.6945737460078755 0.7463608546854023 0.8047314863534811 0.8537372801611741 0.9034802743170984 0.9471766853263054 0.994610713620251 0.0 0.05406008552861413 0.10705695535165055 0.15877607947120576 0.21057049108105313 0.2606956806639459 0.30771975430424164
0.35716339656943247 0.4079100916203344 0.46092203796320175 0.5123448724755749 0.5633289522799132 0.6116362459112972 0.6623832210121937 0.7196853469696406 0.7691123881361519 0.8523078073932824 0.8982666064728893 0.0 0.040453881564352596 0.08621613969336626 0.13524229857061273 0.18505136986589213 0.23607975663538205 0.2802150132740853 0.3296259087764985 0.37960475470102084
0.4303457169658899 0.4841201365808815 0.5314690451931756 0.5844118844786625 0.6329026229796876 0.681437886908202 0.7618240382645476 0.8100450256158086 0.0 0.05625558078722167 0.11082053575016407 0.16236937493652054 0.21208597391883288 0.25347483484284505 0.3041511812126217 0.3543132814271021 0.4040376112652799 0.4521084024830173 0.49342762533317375 0.542444573329093
0.62166199463326 0.668763640004734 0.7183649756459722 0.0 0.04757286795646695 0.09650598199719618 0.14752987599299683 0.19970218789027896 0.23514056066662758 0.2841567754474194 0.33457566476703476 0.38593282663180595 0.43924343350812267 0.47555065177994404 0.5246786001919349 0.5767630405227236 0.03994401919693888 0.08385214263875858 0.13170805320666118 0.1827128675979737
0.21455314626140776 0.2657756532221969 0.3164476137093271 0.36819886623181647 0.4209446215133454 0.0 0.05422890344721674 0.1075583075987872 0.16070801008217778
2.0 0.0 1.0 -2.4492935982947064e-16 0.0 0.0 0.0 0.0 0.0 0.0 0.0 0.0 0.0 0.0 0.0 0.0 0.0 0.0 0.0 0.0
0.0 0.0 0.0 0.04909210309153033 0.0432252134814389 0.045268939130018025 0.0444800592297032 0.04385754616147122 0.04348279632640196 0.04329159769776038 0.04322783013761049 0.043258735037064615 0.043367709565435564 0.04354820513162481 0.043798850993168464 0.04411920369497074 0.04450339778674677 0.04493339625515686 0.045364471386538874 0.04566361621770836
0.0450923271032544 0.04142459195101883 0.04873809203418881 0.10445521185393145 0.08508197902130739 0.08984124632400863 0.08873007338368503 0.0875215804633674 0.08681918915372394 0.08645818448034717 0.08631983215446255 0.08634341613749028 0.0865009556289068 0.08678156277963918 0.08718441994009055 0.0877131970636877 0.08836946875253661 0.08914182201440991 0.08998885198386598 0.09079030749628358
0.09103534809072963 0.08854226701998279 0.08064367753257462 0.1522397619859009 0.13427906926725372 0.13209914132577263 0.1307337878111501 0.12990974828616253 0.12947412606647818 0.1292896332706715 0.12929422125696563 0.1294609088378939 0.12977991876096134 0.13025081162347224 0.1308796361149449 0.13167374486017808 0.1326326854788735 0.13372963382145442 0.13488344722863574 0.1358596387343562
0.13564785097919405 0.12950273081408623 0.10465197681800903 0.2042216351543152 0.1841801976116025 0.17460554946345036 0.17325636234134686 0.17273790096091213 0.1723846251728706 0.17219803530741126 0.17217996992105014 0.17232889490945486 0.17264297474833615 0.1731234480887722 0.17377527192023232 0.1746057266086034 0.17561618818466873 0.17678019777082735 0.17799020081687714 0.17896884082945433
0.17914722824428425 0.17677260113616855 0.15532323425609249 0.2378421304095465 0.22159279727553738 0.217039903824905 0.21598635197895266 0.215498341467496 0.2152152582598044 0.2151178893322168 0.2152050081419236 0.21547411658466772 0.21592278882590038 0.21655216144017947 0.21736690173981285 0.21837196711019086 0.2195594208326177 0.2208679103380845 0.2220786182169943 0.22275680975409953
0.22279157261802857 0.22385218511885752 0.20150309213196332 0.25911856061871236 0.2687558892487821 0.2632661205112609 0.2605240797648574 0.25926421769246316 0.2585877879282917 0.2582609037709777 0.25820300300881344 0.2583733943089581 0.25875076502465794 0.25932499147455906 0.26009382125842145 0.26106173101537744 0.26223722642786024 0.2636240536743865 0.26517846068350587 0.2666698049824742
0.26780758228635776 0.27023114218377964 0.25362155437098927 0.30853177408950216 0.2997960174707516 0.3088465790825637 0.3059831311634121 0.30371362668586044 0.3024104254815887 0.30170715878255205 0.30141295386786576 0.30142591860775897 0.3016904501464929 0.3021792897182432 0.30288074478912946 0.3037922665030301 0.3049250876178558 0.30631314094677625 0.30803929129653107 0.31023162889932504
0.31273048868884173 0.314922628720086 0.31862357272234015 0.3000053797736401 0.3583297683176881 0.3497113345540634 0.34751439458168387 0.3500472675782054 0.3481848761320841 0.34647365961013965 0.34541216257220836 0.34485766126493184 0.3446808999254587 0.3448020119353913 0.34517796854813737 0.34579038413586155 0.3466330779753766 0.34770485205684726 0.3490307228042266 0.35069866019834617
0.3529846557758953 0.3565360060069355 0.36148818754819334 0.36554594324299233 0.35233247679710383 0.40748518702585945 0.40006754589704024 0.3947344509088667 0.3924793948957655 0.39205654332667805 0.3905167863545881 0.3892638369294666 0.3885029324152784 0.38814827481940944 0.38811818040375434 0.3883646635582119 0.3888675427107256 0.3896244096005169 0.39063603271177116 0.39188949482953067
0.39340396557914703 0.3952779963001391 0.39794875322625906 0.40293125221648235 0.4114698747487514 0.4013712232791315 0.4501454469071311 0.44367952154348966 0.43883724408467634 0.43567702377933143 0.4343236252904999 0.43312774678572946 0.432282918133556 0.43180624562705805 0.43164584926728344 0.43176303586763226 0.4321437617037804 0.4327953293306242 0.4337378503215063 0.434980090306377
0.4364706913439834 0.4381951674071001 0.44019265223848847 0.44298687968984346 0.4496511832789018 0.46270715239969734 0.44768849693078205 0.45548139955295497 0.49361594357834937 0.4868493943107226 0.48086797087156385 0.47811758496953405 0.47693245616646823 0.47613630874186935 0.47562239479573126 0.47537460526966024 0.47537863613813314 0.47563386215264836 0.476158995095241 0.4769953756798402
0.47819938490703057 0.47979880861997576 0.48164652027562926 0.4836648869866761 0.48574561722174275 0.48872656728304675 0.5082260009009902 0.500722754886307 0.5016929611521197 0.4994528285600292 0.5366767310667382 0.5262289711553552 0.5224318052706152 0.5208267564031176 0.5200726991770455 0.5195867673172464 0.5192969388722505 0.5192101526150078 0.5193436326586531 0.5197259435820155
0.5204083471837433 0.5214790139830294 0.5230672748910212 0.5252659671731597 0.5276844281043354 0.5301115984679691 0.5319988527973256 0.5338511085045319 0.5502448316879314 0.5464099459103154 0.5462894671999194 0.5441649119573941 0.5704189588237081 0.5666942779973617 0.5650805840531193 0.5642385951291405 0.5637522435262633 0.5634301202499222 0.5632625811721317 0.5632770848634822
0.5635073654610946 0.5640009103098412 0.564838604460401 0.5661756066907807 0.5682962271042388 0.5715460585063108 0.5748785825093251 0.5777482138754164 0.5783762629106056 0.5670673942426059 0.5897056634426434 0.5914840099667574 0.5911019863731072 0.5892824614196325 0.612210540385201 0.6110540670486265 0.6097523982403772 0.6088482877499611 0.608236311118513 0.607821249561453
0.607550915028037 0.6074385870178893 0.607514084942239 0.6078125295817836 0.6083838189955485 0.609323894753306 0.6108577060651098 0.6135528465900537 0.6186650767878638 0.6229268985061585 0.6244208735552753 0.6177222630859899 0.6048103667277863 0.6317634192121261 0.6356789222194418 0.6366681113477924 0.6369349193261499 0.6466331387035694 0.6546613353038687 0.6545446755223525
0.6537350968327967 0.6530184269826292 0.6524638423067789 0.6520623197712162 0.6518124792634019 0.6517355714540903 0.6518574884914378 0.6522014724399406 0.6527985265166794 0.653721146407003 0.6552102148742072 0.6582035803323234 0.6670928797570284 0.6708437127224006 0.6665605592793163 0.6568802590242907 0.6718955148875084 0.6789653962949374 0.6808567891163807 0.6825628164720665
0.6878265316744969 0.693796921061811 0.6978488613815574 0.698184431800975 0.6977388374408482 0.6971931038460957 0.6967078461804698 0.6963391869219105 0.6961239033215227 0.696094683826622 0.6962711654286045 0.6966549173756977 0.6972321876512637 0.6979935651573806 0.6990411654694609 0.7012649905623614 0.7172783490640184 0.7142429086717165 0.7074248521471033 0.7092657980609973
0.721308464997106 0.7233837392012042 0.7263093264057463 0.7304699382596602 0.7351536728250644 0.7390573867986698 0.741511943602383 0.7419804046828029 0.7417566493527449 0.7413427150959598 0.74092621753699 0.7406040386360652 0.7404439789392291 0.7404890756278694 0.740751948725164 0.741206705013397 0.7417835622613064 0.7423594819400062 0.742744713950491 0.7420056448458641
0.7619672315995909 0.756634344960811 0.7480396670897566 0.7579659204209569 0.7693560185817568 0.7673265850518849 0.7700091421592613 0.7737017206785334 0.7776371722996298 0.7811764681829617 0.783876054626161 0.7855023122117756 0.7859394524237827 0.7858133863356122 0.7854750907102306 0.7851053742368271 0.7848291635362811 0.784739941928215 0.7848888577248968 0.7852747251696978
0.7858320705186466 0.786403642913543 0.7866460135832715 0.7854275515961044 0.7759502640278868 0.8060966208440714 0.8115512995675158 0.782215181567914 0.7993238428229201 0.8090407220104412 0.814394578670715 0.8148108417149555 0.8175545498345572 0.8208586033627393 0.8240167364976192 0.8266501867364828 0.8285693649020994 0.8296836833473322 0.8300144300073561 0.8298981326004329
0.8295781512964566 0.8292194769939827 0.8289738148213817 0.8289607599984755 0.8292280876810207 0.8297354431937288 0.8303192791795869 0.8305884556765633 0.8295456259286985 0.8243518089782459 0.8157294365480612 0.8719061483312007 0.8433640388939366 0.8553865097247477 0.8391544711427193 0.8490588245140067 0.8557243682753718 0.8596208585249719 0.861642421279122 0.8644444982369642
0.8672990002923471 0.8698159389638358 0.8718077586842653 0.8731920643115126 0.8739491486387118 0.8741442429795381 0.8739788693666247 0.8736242762879572 0.8732278350061736 0.8729865924039243 0.8730506762841924 0.8734441071536583 0.874040066406652 0.8744813053788022 0.873975447707617 0.8710546050416615 0.8656127919696247 0.8577528582483447 0.916747637823001 0.8943117647691735
0.8948716281236992 0.8967275944803389 0.8928774256538362 0.8917396976019634 0.8975701381712338 0.9021757511184002 0.9055719766057418 0.9081583016009205 0.9108112634045865 0.9132398164070223 0.9152552617605085 0.9167694171194573 0.917754028127103 0.9182308070995037 0.9182766557036025 0.9180225033620553 0.9175821530641297 0.9170831477940536 0.9168185290503456 0.916983411745403