TITLE = "Written by meshio v4.3.8"
VARIABLES = "X", "Y"
ZONE NODES = 11, ELEMENTS = 10,
DATAPACKING = BLOCK, ZONETYPE = FETRIANGLE
0.01 0.02 0.02 0.01 0.013274915811198829 0.01672508418880118 0.01 0.015000000000000008 0.02 0.013274915811198829 0.01672508418880118
0.0 0.0 0.01 0.01 0.0 0.0 0.005 0.005 0.005 0.01 0.01
9 6 2
6 9 8
11 9 3
9 11 8
5 7 1
7 5 8
5 6 8
7 10 4
10 7 8
11 10 8
