TITLE = "Written by meshio v4.3.8"
VARIABLES = "X", "Y"
ZONE NODES = 11, ELEMENTS = 10,
DATAPACKING = BLOCK, ZONETYPE = FETRIANGLE
0.01 0.02 0.02 0.01 0.013274915811198823 0.016725084188801177 0.01 0.015 0.02 0.013274915811198823 0.016725084188801177
0.0 0.0 0.01 0.01 0.0 0.0 0.005 0.005 0.005 0.01 0.01
10 4 7
8 10 7
5 8 7
1 5 7
11 10 8
11 9 3
9 11 8
5 6 8
9 6 2
6 9 8
